LAMMPS (10 Mar 2016-ICMS)
WARNING: OMP_NUM_THREADS environment is not set. (../comm.cpp:90)
  using 1 OpenMP thread(s) per MPI task
dump dumpit all atom 1 atom.*
dump_modify dumpit format "%i %i %.13e %.13e %.13e"
Total wall time: 0:00:00
