ITEM: TIMESTEP
10342
ITEM: NUMBER OF ATOMS
11520
ITEM: BOX BOUNDS pp pp pp
-84.2575 84.2575
-81.0769 81.0769
0 4.96492
ITEM: ATOMS id type x y z c_peatom 
2 2 -8.3133013219875e+001 -8.0383174494096e+001 4.8510077713684e+000 -4.2014964498307e+000 
5 2 -8.0791871893326e+001 -8.0381947343800e+001 4.0291343634174e+000 -4.2187339883509e+000 
6 2 -8.0791871893326e+001 -8.0381947343800e+001 1.5466725228442e+000 -4.2187339418553e+000 
7 2 -8.1963017636777e+001 -7.8356727305797e+001 7.1135093804432e-001 -4.2729548139068e+000 
8 2 -8.1963017636777e+001 -7.8356727305797e+001 3.1938127786175e+000 -4.2729547060705e+000 
12 2 -8.3133013219875e+001 -8.0383174494096e+001 2.3685459307952e+000 -4.2014963413015e+000 
1 2 -7.9621883206426e+001 -7.8355500819584e+001 4.8544695351032e+000 -4.2713401398431e+000 
9 2 -7.8450669772993e+001 -8.0380636431873e+001 7.2499563415651e-001 -4.2169531016224e+000 
10 2 -7.8450669772993e+001 -8.0380636431873e+001 3.2074574747297e+000 -4.2169530317408e+000 
11 2 -7.9621883206426e+001 -7.8355500819584e+001 2.3720076945300e+000 -4.2713400307048e+000 
15 2 -7.7280685718371e+001 -7.8354188026575e+001 4.0328681348194e+000 -4.2710465249524e+000 
16 2 -7.7280685718371e+001 -7.8354188026575e+001 1.5504062942462e+000 -4.2710465206380e+000 
13 2 -7.2598092098004e+001 -7.8351283673311e+001 4.8727720820549e+000 -4.2704234492541e+000 
14 2 -7.6109404681018e+001 -8.0379237158782e+001 4.8684467936085e+000 -4.2149045223672e+000 
17 2 -7.3768074676963e+001 -8.0377745018850e+001 4.0471864125784e+000 -4.2127749796103e+000 
18 2 -7.3768074676963e+001 -8.0377745018850e+001 1.5647245720052e+000 -4.2127749338456e+000 
19 2 -7.4939422745569e+001 -7.8352783947614e+001 7.2901705246304e-001 -4.2707410829122e+000 
20 2 -7.4939422745569e+001 -7.8352783947614e+001 3.2114788930362e+000 -4.2707409835120e+000 
23 2 -7.2598092098004e+001 -7.8351283673311e+001 2.3903102414817e+000 -4.2704233399514e+000 
24 2 -7.6109404681018e+001 -8.0379237158782e+001 2.3859849530353e+000 -4.2149043964777e+000 
21 2 -7.1426678130468e+001 -8.0376155701740e+001 7.4368391655614e-001 -4.2105632697245e+000 
22 2 -7.1426678130468e+001 -8.0376155701740e+001 3.2261457571293e+000 -4.2105632010704e+000 
26 2 -6.9085213802828e+001 -8.0374465215945e+001 4.8877939265684e+000 -4.2082684962836e+000 
27 2 -7.0256691901694e+001 -7.8349682471436e+001 4.0518322874871e+000 -4.2700936141914e+000 
28 2 -7.0256691901694e+001 -7.8349682471436e+001 1.5693704469139e+000 -4.2700936100482e+000 
36 2 -6.9085213802828e+001 -8.0374465215945e+001 2.4053320859952e+000 -4.2082683721942e+000 
25 2 -6.5573677494265e+001 -7.8346160062354e+001 4.8931324374265e+000 -4.2693987576916e+000 
29 2 -6.6743680936765e+001 -8.0372670036138e+001 4.0672140109043e+000 -4.2058905483070e+000 
30 2 -6.6743680936765e+001 -8.0372670036138e+001 1.5847521703311e+000 -4.2058905023067e+000 
31 2 -6.7915220688242e+001 -7.8347975919135e+001 7.4866746327898e-001 -4.2697520208045e+000 
32 2 -6.7915220688242e+001 -7.8347975919135e+001 3.2311293038522e+000 -4.2697519212472e+000 
35 2 -6.5573677494265e+001 -7.8346160062354e+001 2.4106705968533e+000 -4.2693986482956e+000 
33 2 -6.4402079352837e+001 -8.0370767275494e+001 7.6441210811809e-001 -4.2034307149292e+000 
34 2 -6.4402079352837e+001 -8.0370767275494e+001 3.2468739486913e+000 -4.2034306473658e+000 
38 2 -6.2060409549988e+001 -8.0368754882949e+001 4.9092407967242e+000 -4.2008912566097e+000 
39 2 -6.3232061969144e+001 -7.8344231604113e+001 4.0729247808372e+000 -4.2690343777167e+000 
40 2 -6.3232061969144e+001 -7.8344231604113e+001 1.5904629402640e+000 -4.2690343738979e+000 
43 2 -6.0890374488441e+001 -7.8342188121985e+001 7.7051218493183e-001 -4.2686599910895e+000 
44 2 -6.0890374488441e+001 -7.8342188121985e+001 3.2529740255050e+000 -4.2686598912257e+000 
48 2 -6.2060409549988e+001 -8.0368754882949e+001 2.4267789561510e+000 -4.2008911350173e+000 
37 2 -5.8548616268887e+001 -7.8340028313321e+001 4.9157466847832e+000 -4.2682764583187e+000 
41 2 -5.9718672806529e+001 -8.0366631863746e+001 4.0893949798867e+000 -4.1982759252372e+000 
42 2 -5.9718672806529e+001 -8.0366631863746e+001 1.6069331393135e+000 -4.1982758794094e+000 
45 2 -5.7376871276554e+001 -8.0364398519472e+001 7.8733925132008e-001 -4.1955906190274e+000 
46 2 -5.7376871276554e+001 -8.0364398519472e+001 3.2698010918933e+000 -4.1955905522758e+000 
47 2 -5.8548616268887e+001 -7.8340028313321e+001 2.4332848442100e+000 -4.2682763489434e+000 
50 2 -5.5035008075394e+001 -8.0362056701179e+001 4.9329221250649e+000 -4.1928430043406e+000 
51 2 -5.6206789479314e+001 -7.8337752264245e+001 4.0963222989716e+000 -4.2678852059825e+000 
52 2 -5.6206789479314e+001 -7.8337752264245e+001 1.6138604583984e+000 -4.2678852027004e+000 
55 2 -5.3864897340190e+001 -7.8335361735389e+001 7.9470235623798e-001 -4.2674883035145e+000 
56 2 -5.3864897340190e+001 -7.8335361735389e+001 3.2771641968112e+000 -4.2674882031385e+000 
60 2 -5.5035008075394e+001 -8.0362056701179e+001 2.4504602844917e+000 -4.1928428861666e+000 
49 2 -5.1522944202836e+001 -7.8332860453674e+001 4.9407336964098e+000 -4.2670876295581e+000 
53 2 -5.2693087346464e+001 -8.0359610066153e+001 4.1138337059010e+000 -4.1900429957209e+000 
54 2 -5.2693087346464e+001 -8.0359610066153e+001 1.6313718653278e+000 -4.1900429506258e+000 
57 2 -5.0351114300845e+001 -8.0357064325725e+001 8.1253307577374e-001 -4.1872033013697e+000 
58 2 -5.0351114300845e+001 -8.0357064325725e+001 3.2949949163469e+000 -4.1872032349706e+000 
59 2 -5.1522944202836e+001 -7.8332860453674e+001 2.4582718558366e+000 -4.2670875203683e+000 
63 2 -4.9180935598110e+001 -7.8330254395569e+001 4.1221043278920e+000 -4.2666856525466e+000 
64 2 -4.9180935598110e+001 -7.8330254395569e+001 1.6396424873188e+000 -4.2666856537126e+000 
62 2 -4.8009095220532e+001 -8.0354427468535e+001 4.9588625878723e+000 -4.1843389047522e+000 
65 2 -4.5667037416679e+001 -8.0351709941275e+001 4.1405056526677e+000 -4.1814673015546e+000 
66 2 -4.5667037416679e+001 -8.0351709941275e+001 1.6580438120945e+000 -4.1814672193720e+000 
67 2 -4.6838878243765e+001 -7.8327552043552e+001 8.2127082288265e-001 -4.2662854253612e+000 
68 2 -4.6838878243765e+001 -7.8327552043552e+001 3.3037326634559e+000 -4.2662853619057e+000 
72 2 -4.8009095220532e+001 -8.0354427468535e+001 2.4764007472991e+000 -4.1843387911611e+000 
61 2 -4.4496780000004e+001 -7.8324764594512e+001 3.1489661361365e-003 -4.2658898279003e+000 
69 2 -4.3324949135591e+001 -8.0348924767859e+001 8.3991429584021e-001 -4.1786084214150e+000 
70 2 -4.3324949135591e+001 -8.0348924767859e+001 3.3223761364134e+000 -4.1786084272730e+000 
71 2 -4.4496780000004e+001 -7.8324764594512e+001 2.4856108067093e+000 -4.2658897256892e+000 
75 2 -4.2154649764514e+001 -7.8321906097334e+001 4.1501900135396e+000 -4.2655021029819e+000 
76 2 -4.2154649764514e+001 -7.8321906097334e+001 1.6677281729664e+000 -4.2655019871021e+000 
73 2 -3.7470333003187e+001 -7.8316046570662e+001 3.2625210076589e-002 -4.2647634735798e+000 
74 2 -4.0982839407932e+001 -8.0346087588545e+001 2.1999998475511e-002 -4.1757843070127e+000 
77 2 -3.8640717840422e+001 -8.0343216603390e+001 4.1692101655787e+000 -4.1730180047231e+000 
78 2 -3.8640717840422e+001 -8.0343216603390e+001 1.6867483250055e+000 -4.1730179336173e+000 
79 2 -3.9812497301397e+001 -7.8318993497590e+001 8.5007153784060e-001 -4.2651254678812e+000 
80 2 -3.9812497301397e+001 -7.8318993497590e+001 3.3325333784138e+000 -4.2651254724897e+000 
83 2 -3.7470333003187e+001 -7.8316046570662e+001 2.5150870506498e+000 -4.2647633718572e+000 
84 2 -4.0982839407932e+001 -8.0346087588545e+001 2.5044618390487e+000 -4.1757842357148e+000 
81 2 -3.6298594354158e+001 -8.0340332409560e+001 8.6921918538220e-001 -4.1703333957367e+000 
82 2 -3.6298594354158e+001 -8.0340332409560e+001 3.3516810259554e+000 -4.1703333983439e+000 
86 2 -3.3956478878948e+001 -8.0337457729329e+001 5.1856409521086e-002 -4.1677543445332e+000 
87 2 -3.5128167590993e+001 -7.8313087730979e+001 4.1802950165904e+000 -4.2644188839095e+000 
88 2 -3.5128167590993e+001 -7.8313087730979e+001 1.6978331760172e+000 -4.2644187730906e+000 
96 2 -3.3956478878948e+001 -8.0337457729329e+001 2.5343182500943e+000 -4.1677542696484e+000 
85 2 -3.0443875818262e+001 -7.8307235138949e+001 6.3823248284578e-002 -4.2637924953710e+000 
89 2 -3.1614381018154e+001 -8.0334617034337e+001 4.1995645338464e+000 -4.1653030570789e+000 
90 2 -3.1614381018154e+001 -8.0334617034337e+001 1.7171026932732e+000 -4.1653029873646e+000 
91 2 -3.2786011764318e+001 -7.8310141714079e+001 8.8075216797064e-001 -4.2640943827315e+000 
92 2 -3.2786011764318e+001 -7.8310141714079e+001 3.3632140085438e+000 -4.2640943868623e+000 
95 2 -3.0443875818262e+001 -7.8307235138949e+001 2.5462850888578e+000 -4.2637923940752e+000 
93 2 -2.9272309702611e+001 -8.0331836080774e+001 9.0001461719440e-001 -4.1629997728634e+000 
94 2 -2.9272309702611e+001 -8.0331836080774e+001 3.3824764577676e+000 -4.1629997765931e+000 
98 2 -2.6930272854620e+001 -8.0329141378300e+001 8.3034271557173e-002 -4.1608618931497e+000 
99 2 -2.8101769250676e+001 -7.8304395969217e+001 4.2119487498512e+000 -4.2635146099896e+000 
100 2 -2.8101769250676e+001 -7.8304395969217e+001 1.7294869092780e+000 -4.2635145006908e+000 
103 2 -2.5759700384507e+001 -7.8301652901470e+001 9.1279821529358e-001 -4.2632617974754e+000 
104 2 -2.5759700384507e+001 -7.8301652901470e+001 3.3952600558668e+000 -4.2632618011447e+000 
108 2 -2.6930272854620e+001 -8.0329141378300e+001 2.5654961121304e+000 -4.1608618139722e+000 
97 2 -2.3417676030448e+001 -7.8299034715700e+001 9.6198507122393e-002 -4.2630348430345e+000 
101 2 -2.4588277083210e+001 -8.0326559621393e+001 4.2310661607335e+000 -4.1589026731339e+000 
102 2 -2.4588277083210e+001 -8.0326559621393e+001 1.7486043201603e+000 -4.1589026051932e+000 
105 2 -2.2246327429842e+001 -8.0324117114482e+001 9.3178302944467e-001 -4.1571316567753e+000 
106 2 -2.2246327429842e+001 -8.0324117114482e+001 3.4142448700179e+000 -4.1571316614971e+000 
107 2 -2.3417676030448e+001 -7.8299034715700e+001 2.5786603476956e+000 -4.2630347421511e+000 
110 2 -1.9904427179634e+001 -8.0321839221203e+001 1.1501579202819e-001 -4.1555545859242e+000 
111 2 -2.1075701212063e+001 -7.8296569625410e+001 4.2445923331125e+000 -4.2628334516164e+000 
112 2 -2.1075701212063e+001 -7.8296569625410e+001 1.7621304925393e+000 -4.2628333438065e+000 
115 2 -1.8733778970204e+001 -7.8294284662810e+001 9.4565324627146e-001 -4.2626571882870e+000 
116 2 -1.8733778970204e+001 -7.8294284662810e+001 3.4281150868447e+000 -4.2626571915330e+000 
120 2 -1.9904427179634e+001 -8.0321839221203e+001 2.5974776326014e+000 -4.1555545021608e+000 
109 2 -1.6391910256662e+001 -7.8292205128334e+001 1.2921365118104e-001 -4.2625055868305e+000 
113 2 -1.7562577747778e+001 -8.0319749863657e+001 4.2632118251298e+000 -4.1541728055034e+000 
114 2 -1.7562577747778e+001 -8.0319749863657e+001 1.7807499845566e+000 -4.1541727393523e+000 
117 2 -1.5220778644926e+001 -8.0317871090538e+001 9.6404970407555e-001 -4.1529845045297e+000 
118 2 -1.5220778644926e+001 -8.0317871090538e+001 3.4465115446487e+000 -4.1529845100224e+000 
119 2 -1.6391910256662e+001 -7.8292205128334e+001 2.6116754917542e+000 -4.2625054862711e+000 
123 2 -1.4050093919809e+001 -7.8290354124515e+001 4.2777229688629e+000 -4.2623773746877e+000 
124 2 -1.4050093919809e+001 -7.8290354124515e+001 1.7952611282897e+000 -4.2623772681878e+000 
122 2 -1.2879027519687e+001 -8.0316222724493e+001 1.4736693714669e-001 -4.1519852752556e+000 
125 2 -1.0537320271870e+001 -8.0314822090619e+001 4.2956178708192e+000 -4.1511683954538e+000 
126 2 -1.0537320271870e+001 -8.0314822090619e+001 1.8131560302460e+000 -4.1511683307706e+000 
127 2 -1.1708326778347e+001 -7.8288752183724e+001 9.7886221108689e-001 -4.2622714186350e+000 
128 2 -1.1708326778347e+001 -7.8288752183724e+001 3.4613240516601e+000 -4.2622714214571e+000 
132 2 -1.2879027519687e+001 -8.0316222724493e+001 2.6298287777199e+000 -4.1519851871419e+000 
121 2 -9.3666037742613e+000 -7.8287416989159e+001 1.6247153119710e-001 -4.2621868487276e+000 
129 2 -8.1956512269692e+000 -8.0313683820550e+001 9.9648803391334e-001 -4.1505266483764e+000 
130 2 -8.1956512269692e+000 -8.0313683820550e+001 3.4789498744865e+000 -4.1505266542751e+000 
131 2 -9.3666037742613e+000 -7.8287416989159e+001 2.6449333717703e+000 -4.2621867483029e+000 
135 2 -7.0249181928080e+000 -7.8286363180036e+001 4.3110079372072e+000 -4.2621222971561e+000 
136 2 -7.0249181928080e+000 -7.8286363180036e+001 1.8285460966340e+000 -4.2621221917024e+000 
133 2 -2.3416258367025e+000 -7.8285142355513e+001 1.9577226892810e-001 -4.2620499881830e+000 
134 2 -5.8540133608237e+000 -8.0312819721177e+001 1.7982149956869e-001 -4.1500530359745e+000 
137 2 -3.5123985631369e+000 -8.0312238693994e+001 4.3280784572734e+000 -4.1497410403776e+000 
138 2 -3.5123985631369e+000 -8.0312238693994e+001 1.8456166167002e+000 -4.1497409766378e+000 
139 2 -4.6832619360580e+000 -7.8285602226298e+001 1.0121594463301e+000 -4.2620768224476e+000 
140 2 -4.6832619360580e+000 -7.8285602226298e+001 3.4946212869033e+000 -4.2620768247786e+000 
143 2 -2.3416258367025e+000 -7.8285142355513e+001 2.6782341095013e+000 -4.2620498876149e+000 
144 2 -5.8540133608237e+000 -8.0312819721177e+001 2.6622833401419e+000 -4.1500529441389e+000 
141 2 -1.1707979292463e+000 -8.0311946690475e+001 1.0289492759300e+000 -4.1495862001896e+000 
142 2 -1.1707979292463e+000 -8.0311946690475e+001 3.5114111165032e+000 -4.1495862060091e+000 
146 2 1.1707979292463e+000 -8.0311946690475e+001 2.1228164435657e-001 -4.1495862993317e+000 
147 2 0.0000000000000e+000 -7.8284988515049e+001 4.3443082210031e+000 -4.2620410642967e+000 
148 2 0.0000000000000e+000 -7.8284988515049e+001 1.8618463804299e+000 -4.2620409596185e+000 
156 2 1.1707979292463e+000 -8.0311946690475e+001 2.6947434849298e+000 -4.1495862044123e+000 
145 2 4.6832619360580e+000 -7.8285602226298e+001 2.2907147395654e-001 -4.2620769157091e+000 
149 2 3.5123985631369e+000 -8.0312238693994e+001 4.3605379847328e+000 -4.1497410396617e+000 
150 2 3.5123985631369e+000 -8.0312238693994e+001 1.8780761441596e+000 -4.1497409762860e+000 
151 2 2.3416258367025e+000 -7.8285142355513e+001 1.0454586513585e+000 -4.2620498958563e+000 
152 2 2.3416258367025e+000 -7.8285142355513e+001 3.5279204919317e+000 -4.2620498975516e+000 
153 2 5.8540133608237e+000 -8.0312819721177e+001 1.0614094207179e+000 -4.1500529410120e+000 
154 2 5.8540133608237e+000 -8.0312819721177e+001 3.5438712612911e+000 -4.1500529461864e+000 
155 2 4.6832619360580e+000 -7.8285602226298e+001 2.7115333145297e+000 -4.2620768146494e+000 
158 2 8.1956512269692e+000 -8.0313683820550e+001 2.4474288637326e-001 -4.1505267503122e+000 
159 2 7.0249181928080e+000 -7.8286363180036e+001 4.3776085047990e+000 -4.2621222961399e+000 
160 2 7.0249181928080e+000 -7.8286363180036e+001 1.8951466642258e+000 -4.2621221920165e+000 
163 2 9.3666037742613e+000 -7.8287416989159e+001 1.0787593890895e+000 -4.2621867573490e+000 
164 2 9.3666037742613e+000 -7.8287416989159e+001 3.5612212296627e+000 -4.2621867581952e+000 
168 2 8.1956512269692e+000 -8.0313683820550e+001 2.7272047269465e+000 -4.1505266526426e+000 
157 2 1.1708326778347e+001 -7.8288752183724e+001 2.6236870919971e-001 -4.2622715129069e+000 
161 2 1.0537320271870e+001 -8.0314822090619e+001 4.3929985711870e+000 -4.1511683932482e+000 
162 2 1.0537320271870e+001 -8.0314822090619e+001 1.9105367306138e+000 -4.1511683297053e+000 
165 2 1.2879027519687e+001 -8.0316222724493e+001 1.0938639831399e+000 -4.1519851861794e+000 
166 2 1.2879027519687e+001 -8.0316222724493e+001 3.5763258237131e+000 -4.1519851901347e+000 
167 2 1.1708326778347e+001 -7.8288752183724e+001 2.7448305497729e+000 -4.2622714109688e+000 
170 2 1.5220778644926e+001 -8.0317871090538e+001 2.7718121621105e-001 -4.1529846083453e+000 
171 2 1.4050093919809e+001 -7.8290354124515e+001 4.4108934731433e+000 -4.2623773725692e+000 
172 2 1.4050093919809e+001 -7.8290354124515e+001 1.9284316325701e+000 -4.2623772688574e+000 
173 2 1.7562577747778e+001 -8.0319749863657e+001 4.4254046168764e+000 -4.1541728016804e+000 
174 2 1.7562577747778e+001 -8.0319749863657e+001 1.9429427763032e+000 -4.1541727375429e+000 
175 2 1.6391910256662e+001 -7.8292205128334e+001 1.1120172691056e+000 -4.2625054964889e+000 
176 2 1.6391910256662e+001 -7.8292205128334e+001 3.5944791096788e+000 -4.2625054962391e+000 
180 2 1.5220778644926e+001 -8.0317871090538e+001 2.7596430567843e+000 -4.1529845078929e+000 
169 2 1.8733778970204e+001 -7.8294284662810e+001 2.9557767401514e-001 -4.2626572837049e+000 
177 2 1.9904427179634e+001 -8.0321839221203e+001 1.1262151282584e+000 -4.1555545043055e+000 
178 2 1.9904427179634e+001 -8.0321839221203e+001 3.6086769688316e+000 -4.1555545065813e+000 
179 2 1.8733778970204e+001 -7.8294284662810e+001 2.7780395145883e+000 -4.2626571805172e+000 
183 2 2.1075701212063e+001 -7.8296569625410e+001 4.4440241088937e+000 -4.2628334482654e+000 
184 2 2.1075701212063e+001 -7.8296569625410e+001 1.9615622683205e+000 -4.2628333449009e+000 
182 2 2.2246327429842e+001 -8.0324117114482e+001 3.0944789084193e-001 -4.1571317619183e+000 
185 2 2.4588277083210e+001 -8.0326559621393e+001 4.4575502812727e+000 -4.1589026676132e+000 
186 2 2.4588277083210e+001 -8.0326559621393e+001 1.9750884406995e+000 -4.1589026025869e+000 
187 2 2.3417676030448e+001 -7.8299034715700e+001 1.1450324131642e+000 -4.2630347538431e+000 
188 2 2.3417676030448e+001 -7.8299034715700e+001 3.6274942537374e+000 -4.2630347522812e+000 
192 2 2.2246327429842e+001 -8.0324117114482e+001 2.7919097314151e+000 -4.1571316584611e+000 
181 2 2.5759700384507e+001 -7.8301652901470e+001 3.2843270499302e-001 -4.2632618941722e+000 
189 2 2.6930272854620e+001 -8.0329141378300e+001 1.1581966487294e+000 -4.1608618198540e+000 
190 2 2.6930272854620e+001 -8.0329141378300e+001 3.6406584893026e+000 -4.1608618202551e+000 
191 2 2.5759700384507e+001 -7.8301652901470e+001 2.8108945455662e+000 -4.2632617894575e+000 
194 2 2.9272309702611e+001 -8.0331836080774e+001 3.4121630309220e-001 -4.1629998789216e+000 
195 2 2.8101769250676e+001 -7.8304395969217e+001 4.4766676921550e+000 -4.2635146052988e+000 
196 2 2.8101769250676e+001 -7.8304395969217e+001 1.9942058515818e+000 -4.2635145022837e+000 
204 2 2.9272309702611e+001 -8.0331836080774e+001 2.8236781436654e+000 -4.1629997723313e+000 
193 2 3.2786011764318e+001 -7.8310141714079e+001 3.6047875231596e-001 -4.2640944807639e+000 
197 2 3.1614381018154e+001 -8.0334617034337e+001 4.4890519081598e+000 -4.1653030499596e+000 
198 2 3.1614381018154e+001 -8.0334617034337e+001 2.0065900675866e+000 -4.1653029838893e+000 
199 2 3.0443875818262e+001 -7.8307235138949e+001 1.1774076720020e+000 -4.2637924074009e+000 
200 2 3.0443875818262e+001 -7.8307235138949e+001 3.6598695125752e+000 -4.2637924044136e+000 
203 2 3.2786011764318e+001 -7.8310141714079e+001 2.8429405928892e+000 -4.2640943744142e+000 
201 2 3.3956478878948e+001 -8.0337457729329e+001 1.1893745107655e+000 -4.1677542794332e+000 
202 2 3.3956478878948e+001 -8.0337457729329e+001 3.6718363513387e+000 -4.1677542781315e+000 
206 2 3.6298594354158e+001 -8.0340332409560e+001 3.7201173490440e-001 -4.1703335022057e+000 
207 2 3.5128167590993e+001 -7.8313087730979e+001 4.5083214254158e+000 -4.2644188778702e+000 
208 2 3.5128167590993e+001 -7.8313087730979e+001 2.0258595848426e+000 -4.2644187752352e+000 
216 2 3.6298594354158e+001 -8.0340332409560e+001 2.8544735754776e+000 -4.1703333926650e+000 
205 2 3.9812497301397e+001 -7.8318993497590e+001 3.9115938244600e-001 -4.2651255671585e+000 
209 2 3.8640717840422e+001 -8.0343216603390e+001 4.5194062764275e+000 -4.1730179964133e+000 
210 2 3.8640717840422e+001 -8.0343216603390e+001 2.0369444358543e+000 -4.1730179291913e+000 
211 2 3.7470333003187e+001 -7.8316046570662e+001 1.2086057102100e+000 -4.2647633867870e+000 
212 2 3.7470333003187e+001 -7.8316046570662e+001 3.6910675507832e+000 -4.2647633824095e+000 
213 2 4.0982839407932e+001 -8.0346087588545e+001 1.2192309218111e+000 -4.1757842490947e+000 
214 2 4.0982839407932e+001 -8.0346087588545e+001 3.7016927623843e+000 -4.1757842466042e+000 
215 2 3.9812497301397e+001 -7.8318993497590e+001 2.8736212230192e+000 -4.2651254592637e+000 
218 2 4.3324949135591e+001 -8.0348924767859e+001 4.0131662444639e-001 -4.1786085264505e+000 
219 2 4.2154649764514e+001 -7.8321906097334e+001 4.5384264284666e+000 -4.2655020947838e+000 
220 2 4.2154649764514e+001 -7.8321906097334e+001 2.0559645878934e+000 -4.2655019925297e+000 
223 2 4.4496780000004e+001 -7.8324764594512e+001 1.2380819541505e+000 -4.2658897422082e+000 
224 2 4.4496780000004e+001 -7.8324764594512e+001 3.7205437947237e+000 -4.2658897366240e+000 
228 2 4.3324949135591e+001 -8.0348924767859e+001 2.8837784650196e+000 -4.1786084144803e+000 
217 2 4.6838878243765e+001 -7.8327552043552e+001 4.1996009740395e-001 -4.2662854620984e+000 
221 2 4.5667037416679e+001 -8.0351709941275e+001 4.5481107893385e+000 -4.1814672874688e+000 
222 2 4.5667037416679e+001 -8.0351709941275e+001 2.0656489487653e+000 -4.1814672189858e+000 
225 2 4.8009095220532e+001 -8.0354427468535e+001 1.2472920135607e+000 -4.1843388071877e+000 
226 2 4.8009095220532e+001 -8.0354427468535e+001 3.7297538541339e+000 -4.1843388042059e+000 
227 2 4.6838878243765e+001 -7.8327552043552e+001 2.9024219379771e+000 -4.2662853529031e+000 
230 2 5.0351114300845e+001 -8.0357064325725e+001 4.2869784451286e-001 -4.1872033389387e+000 
231 2 4.9180935598110e+001 -7.8330254395569e+001 4.5665121141142e+000 -4.2666857398211e+000 
232 2 4.9180935598110e+001 -7.8330254395569e+001 2.0840502735410e+000 -4.2666856379065e+000 
233 2 5.2693087346464e+001 -8.0359610066153e+001 4.5747827361052e+000 -4.1900430147889e+000 
234 2 5.2693087346464e+001 -8.0359610066153e+001 2.0923208955320e+000 -4.1900429449603e+000 
235 2 5.1522944202836e+001 -7.8332860453674e+001 1.2654209050232e+000 -4.2670875372255e+000 
236 2 5.1522944202836e+001 -7.8332860453674e+001 3.7478827455964e+000 -4.2670875307051e+000 
240 2 5.0351114300845e+001 -8.0357064325725e+001 2.9111596850861e+000 -4.1872032252543e+000 
229 2 5.3864897340190e+001 -7.8335361735389e+001 4.4652856404862e-001 -4.2674883092353e+000 
237 2 5.5035008075394e+001 -8.0362056701179e+001 1.2732324763681e+000 -4.1928429031024e+000 
238 2 5.5035008075394e+001 -8.0362056701179e+001 3.7556943169413e+000 -4.1928429003035e+000 
239 2 5.3864897340190e+001 -7.8335361735389e+001 2.9289904046218e+000 -4.2674881990533e+000 
243 2 5.6206789479314e+001 -7.8337752264245e+001 4.5922941430346e+000 -4.2678852917185e+000 
244 2 5.6206789479314e+001 -7.8337752264245e+001 2.1098323024614e+000 -4.2678851900788e+000 
242 2 5.7376871276554e+001 -8.0364398519472e+001 4.5389166896652e-001 -4.1955906552303e+000 
245 2 5.9718672806529e+001 -8.0366631863746e+001 4.5992214621195e+000 -4.1982759461256e+000 
246 2 5.9718672806529e+001 -8.0366631863746e+001 2.1167596215463e+000 -4.1982758749122e+000 
247 2 5.8548616268887e+001 -7.8340028313321e+001 1.2904079166498e+000 -4.2682763660750e+000 
248 2 5.8548616268887e+001 -7.8340028313321e+001 3.7728697572230e+000 -4.2682763588986e+000 
252 2 5.7376871276554e+001 -8.0364398519472e+001 2.9363535095397e+000 -4.1955905405570e+000 
241 2 6.0890374488441e+001 -7.8342188121985e+001 4.7071873535477e-001 -4.2686599973059e+000 
249 2 6.2060409549988e+001 -8.0368754882949e+001 1.2969138047088e+000 -4.2008911524098e+000 
250 2 6.2060409549988e+001 -8.0368754882949e+001 3.7793756452820e+000 -4.2008911503129e+000 
251 2 6.0890374488441e+001 -7.8342188121985e+001 2.9531805759280e+000 -4.2686598864411e+000 
254 2 6.4402079352837e+001 -8.0370767275494e+001 4.7681881216851e-001 -4.2034307493198e+000 
255 2 6.3232061969144e+001 -7.8344231604113e+001 4.6156916611690e+000 -4.2690344631629e+000 
256 2 6.3232061969144e+001 -7.8344231604113e+001 2.1332298205958e+000 -4.2690343617297e+000 
264 2 6.4402079352837e+001 -8.0370767275494e+001 2.9592806527417e+000 -4.2034306342713e+000 
253 2 6.7915220688242e+001 -7.8347975919135e+001 4.9256345700762e-001 -4.2697520272967e+000 
257 2 6.6743680936765e+001 -8.0372670036138e+001 4.6214024311019e+000 -4.2058905713792e+000 
258 2 6.6743680936765e+001 -8.0372670036138e+001 2.1389405905287e+000 -4.2058904987904e+000 
259 2 6.5573677494265e+001 -7.8346160062354e+001 1.3130221640065e+000 -4.2693986655410e+000 
260 2 6.5573677494265e+001 -7.8346160062354e+001 3.7954840045797e+000 -4.2693986579474e+000 
263 2 6.7915220688242e+001 -7.8347975919135e+001 2.9750252975808e+000 -4.2697519160002e+000 
261 2 6.9085213802828e+001 -8.0374465215945e+001 1.3183606748646e+000 -4.2082683896906e+000 
262 2 6.9085213802828e+001 -8.0374465215945e+001 3.8008225154378e+000 -4.2082683886281e+000 
266 2 7.1426678130468e+001 -8.0376155701740e+001 4.9754700373046e-001 -4.2105633020472e+000 
267 2 7.0256691901694e+001 -7.8349682471436e+001 4.6367841545191e+000 -4.2700936995316e+000 
268 2 7.0256691901694e+001 -7.8349682471436e+001 2.1543223139459e+000 -4.2700935982447e+000 
276 2 7.1426678130468e+001 -8.0376155701740e+001 2.9800088443037e+000 -4.2105631870877e+000 
265 2 7.4939422745569e+001 -7.8352783947614e+001 5.1221386782356e-001 -4.2707410895198e+000 
269 2 7.3768074676963e+001 -8.0377745018850e+001 4.6414300294278e+000 -4.2127750050467e+000 
270 2 7.3768074676963e+001 -8.0377745018850e+001 2.1589681888546e+000 -4.2127749311303e+000 
271 2 7.2598092098004e+001 -7.8351283673311e+001 1.3333825193781e+000 -4.2704233571987e+000 
272 2 7.2598092098004e+001 -7.8351283673311e+001 3.8158443599513e+000 -4.2704233493693e+000 
273 2 7.6109404681018e+001 -8.0379237158782e+001 1.3377078078245e+000 -4.2149044138527e+000 
274 2 7.6109404681018e+001 -8.0379237158782e+001 3.8201696483977e+000 -4.2149044139997e+000 
275 2 7.4939422745569e+001 -7.8352783947614e+001 2.9946757083968e+000 -4.2707409779787e+000 
278 2 7.8450669772993e+001 -8.0380636431873e+001 5.1623528613009e-001 -4.2169531317701e+000 
279 2 7.7280685718371e+001 -7.8354188026575e+001 4.6557483071868e+000 -4.2710466103140e+000 
280 2 7.7280685718371e+001 -7.8354188026575e+001 2.1732864666136e+000 -4.2710465091251e+000 
283 2 7.9621883206426e+001 -7.8355500819584e+001 1.3516850663298e+000 -4.2711808206754e+000 
284 2 7.9621883206426e+001 -7.8355500819584e+001 3.8341469069030e+000 -4.2711808114114e+000 
288 2 7.8450669772993e+001 -8.0380636431873e+001 2.9986971267033e+000 -4.2169530172265e+000 
3 2 8.4211006139566e+001 -7.8357872448744e+001 4.0158131273980e+000 -4.0618556404784e+000 
4 2 8.4211006139566e+001 -7.8357872448744e+001 1.5333512868248e+000 -4.0618556390307e+000 
277 2 8.1963017636777e+001 -7.8356727305797e+001 5.2987998224228e-001 -4.2649587752329e+000 
281 2 8.0791871893326e+001 -8.0381947343800e+001 4.6594820785888e+000 -4.2069177293503e+000 
282 2 8.0791871893326e+001 -8.0381947343800e+001 2.1770202380156e+000 -4.2069176488300e+000 
285 2 8.3133013219875e+001 -8.0383174494096e+001 1.3551468300646e+000 -4.0494029444749e+000 
286 2 8.3133013219875e+001 -8.0383174494096e+001 3.8376086706378e+000 -4.0494029178338e+000 
287 2 8.1963017636777e+001 -7.8356727305797e+001 3.0123418228155e+000 -4.2649586821495e+000 
290 2 -8.3134088788685e+001 -7.6331432857454e+001 4.8409327178399e+000 -4.2753094538615e+000 
293 2 -8.0793025035633e+001 -7.6330291597188e+001 4.0189946445420e+000 -4.2798413723142e+000 
294 2 -8.0793025035633e+001 -7.6330291597188e+001 1.5365328039688e+000 -4.2798413709123e+000 
295 2 -8.1964087126175e+001 -7.4305003800502e+001 7.0103835605597e-001 -4.2809872990713e+000 
296 2 -8.1964087126175e+001 -7.4305003800502e+001 3.1835001966292e+000 -4.2809871869250e+000 
300 2 -8.3134088788685e+001 -7.6331432857454e+001 2.3584708772667e+000 -4.2753093642205e+000 
289 2 -7.9623035013220e+001 -7.4303867538861e+001 4.8440866914557e+000 -4.2799696168974e+000 
297 2 -7.8451898742941e+001 -7.6329066770212e+001 7.1479684902149e-001 -4.2799697122578e+000 
298 2 -7.8451898742941e+001 -7.6329066770212e+001 3.1972586895947e+000 -4.2799696086083e+000 
299 2 -7.9623035013220e+001 -7.4303867538861e+001 2.3616248508825e+000 -4.2799695132349e+000 
303 2 -7.7281918229047e+001 -7.4302645463814e+001 4.0224206089271e+000 -4.2799717218047e+000 
304 2 -7.7281918229047e+001 -7.4302645463814e+001 1.5399587683539e+000 -4.2799717197301e+000 
301 2 -7.2599478179385e+001 -7.4299920806538e+001 4.8622172149078e+000 -4.2799643750352e+000 
302 2 -7.6110707048133e+001 -7.6327753035637e+001 4.8581957515359e+000 -4.2799700334319e+000 
305 2 -7.3769447249487e+001 -7.6326345004379e+001 4.0368913049341e+000 -4.2799710165835e+000 
306 2 -7.3769447249487e+001 -7.6326345004379e+001 1.5544294643609e+000 -4.2799710144181e+000 
307 2 -7.4940733619245e+001 -7.4301331830187e+001 7.1851169744743e-001 -4.2799656421561e+000 
308 2 -7.4940733619245e+001 -7.4301331830187e+001 3.2009735380206e+000 -4.2799655538157e+000 
311 2 -7.2599478179385e+001 -7.4299920806538e+001 2.3797553743346e+000 -4.2799643218275e+000 
312 2 -7.6110707048133e+001 -7.6327753035637e+001 2.3757339109627e+000 -4.2799699279655e+000 
309 2 -7.1428116879679e+001 -7.6324837327976e+001 7.3335450012924e-001 -4.2799714033713e+000 
310 2 -7.1428116879679e+001 -7.6324837327976e+001 3.2158163407024e+000 -4.2799712959229e+000 
314 2 -6.9086713791622e+001 -7.6323224811912e+001 4.8774417149460e+000 -4.2799714184348e+000 
315 2 -7.0258149134072e+001 -7.4298406567056e+001 4.0412378938329e+000 -4.2799627253274e+000 
316 2 -7.0258149134072e+001 -7.4298406567056e+001 1.5587760532597e+000 -4.2799627267781e+000 
324 2 -6.9086713791622e+001 -7.6323224811912e+001 2.3949798743728e+000 -4.2799713112540e+000 
313 2 -6.5575260844038e+001 -7.4295045911918e+001 4.8824967060092e+000 -4.2799592480478e+000 
317 2 -6.6745236256710e+001 -7.6321502556899e+001 4.0568524684570e+000 -4.2799714504206e+000 
318 2 -6.6745236256710e+001 -7.6321502556899e+001 1.5743906278838e+000 -4.2799714504574e+000 
319 2 -6.7916744030077e+001 -7.4296783410715e+001 7.3804541309696e-001 -4.2799610681894e+000 
320 2 -6.7916744030077e+001 -7.4296783410715e+001 3.2205072536702e+000 -4.2799610054871e+000 
323 2 -6.5575260844038e+001 -7.4295045911918e+001 2.4000348654360e+000 -4.2799591864366e+000 