ITEM: TIMESTEP
170000
ITEM: NUMBER OF ATOMS
4000
ITEM: BOX BOUNDS xy xz yz pp pp pp
0.0000000000000000e+00 4.2823162894893301e+01 0.0000000000000000e+00
0.0000000000000000e+00 3.4600056508144100e+01 0.0000000000000000e+00
0.0000000000000000e+00 3.2763495428642202e+01 0.0000000000000000e+00
ITEM: ATOMS id type xu yu zu c_pe vx vy vz
3289 1 2.0607368373602e+01 8.4871634084000e+00 3.4626624796383e+01 -4.1788539574213e+00 1.8373403430046e-01 -5.6886101788735e+00 6.4463190831571e+00
1827 1 1.6941244083376e+01 1.2825873062391e+01 1.4034308327041e+01 -3.9247978226388e+00 3.6743579333568e+00 2.4109077999864e-01 -1.2403492050483e+00
835 1 1.9830552382689e+01 6.7149010644871e+00 1.2438566602410e+01 -4.1048682139808e+00 2.4563384612147e+00 -1.8403327206217e+00 3.9335300819014e+00
554 1 5.3621451840422e+01 1.3124003097052e+01 1.3577330996262e+01 -4.1774336479420e+00 -5.7260726866760e-01 1.5130089053611e+00 -3.9381807396808e-01
441 1 5.8206465192242e+00 -2.0810215780672e+01 1.2848938989998e+01 -4.1078652493414e+00 1.0218921655580e+01 4.7739620306162e+00 -5.5280576894146e+00
3210 1 5.3152798186409e+00 6.6893505723422e+00 3.4501380109069e+01 -4.1101579339923e+00 -4.1288898196934e+00 -3.8558832419693e+00 3.6768374887325e+00
1956 1 4.4440485650484e+01 1.7083851930329e+01 4.6856848367952e+00 -4.1342827676511e+00 -1.4523943168665e+00 -5.7458818963330e+00 3.7604756021548e+00
2121 1 5.0190716106646e+00 1.2711920401916e+01 6.6486820129715e+00 -4.0878126327990e+00 -6.7997111618416e+00 -2.9201944522276e+00 -1.5693722064171e+00
1813 1 1.1420490779624e+01 1.0474710794612e+01 1.4131778534805e+01 -4.3301313454757e+00 6.7573232653042e+00 5.0454616582688e+00 5.3014589792438e-01
815 1 1.1252068002633e+01 1.5872673757389e+01 4.3409753009111e+00 -3.8874103824119e+00 3.3713598973697e+00 -6.3400213638013e+00 -8.2657122905129e-01
2808 1 1.6058855787831e+01 5.3321413115573e-01 1.1742960841243e+01 -4.2039076239368e+00 1.6232898703817e+00 3.2101384762827e+00 -4.1000079022442e+00
2422 1 7.0655445464786e+00 2.9329509568483e+00 1.3063897649391e+01 -4.2317115206331e+00 2.4618725786700e+00 -4.6349624897365e+00 5.5609396027577e+00
891 1 1.2772907078565e+01 2.8299912400114e+00 7.4206955552564e-01 -4.1639186171492e+00 -5.0883448224691e+00 -2.9113923510960e+00 -4.3005693734913e+00
2948 1 1.6823382746085e+01 5.6313443633967e+00 3.4657413335111e+01 -3.9430026384301e+00 2.4212916179070e+00 -2.7989085434065e+00 -2.9482813069441e-01
317 1 5.0363690802814e+01 1.4462255010055e+01 5.9756926880705e+00 -4.2763582879502e+00 -4.6540133642568e+00 1.6885245079083e+00 -2.6768268774896e+00
36 1 9.3666813286024e-01 -2.7147590632368e+01 5.8653090980244e+00 -3.9181646599319e+00 2.0124374376241e-01 3.4115848705711e+00 -2.4236355370907e+00
2942 1 1.2110007608269e+01 3.5329679425362e+00 3.8915244188733e+01 -3.7813239572635e+00 -3.3994401202210e+00 1.5364399177343e+00 -4.9652928580128e+00
1312 1 1.3011332351753e+01 8.4168364567724e+00 1.6019726644934e+01 -4.1278566168365e+00 5.6280703782948e+00 1.1689709454780e+01 -8.1552932900574e+00
370 1 3.0588925565819e+00 4.4392876284175e+01 2.9679670462364e+00 -4.3087789488720e+00 -1.8468479670150e+00 -7.8810183550794e+00 -1.4448009737949e+00
2963 1 1.2581852412964e+01 1.0991262476940e+01 3.3725801017269e+01 -4.1436728837904e+00 2.8283303753642e+00 -7.6111989738453e+00 -4.6581980439084e+00
3763 1 6.5327254666432e+00 6.3292503669092e+00 3.8527562772611e+01 -3.5768036437799e+00 -9.5765546940816e+00 8.9561646829799e-01 3.5579205771770e+00
27 1 4.4297797205036e+01 1.5257849551024e+01 1.4384198660758e+01 -4.1507649155303e+00 -2.1579511368917e+00 3.9875122013951e+00 -9.2707826776644e-01
119 1 1.8481571226857e+01 1.5088881990481e+01 3.2261838512458e+00 -3.8665841458248e+00 2.1081313239329e+00 9.7518358754897e+00 -7.4105819549117e+00
1763 1 1.5151685155900e+01 1.2319372852948e+01 1.5937904225844e+01 -4.3077480061323e+00 -2.5373554956222e+00 5.3388394645705e+00 -5.7917705107535e+00
222 1 1.0351553943750e+01 3.5210318968524e+00 3.7255480410677e+00 -4.0452710659040e+00 -1.9862932669031e+00 5.4175044605770e-01 6.5204922662421e+00
2801 1 1.9419541501837e+00 5.3745750899573e+00 1.4208782021852e+01 -4.1936443256585e+00 -3.2905418884654e+00 -3.8938782848442e-01 -2.9068528862514e+00
1688 1 4.8170201358444e+00 1.2297740123842e+01 4.2578732227838e+00 -4.0416410748382e+00 -6.8094488645641e+00 -6.0944385569844e+00 -3.9020955796313e+00
1611 1 5.8313377207018e+00 1.2015738148761e+01 1.1351020421087e+01 -4.2636561230122e+00 -2.7750993712258e+00 8.0687985705074e+00 -3.7810096903322e+00
3322 1 3.5470885405576e+00 2.4870069811786e+00 3.3502939554424e+01 -3.8031133111624e+00 2.4212859347043e+00 1.1319130641412e+01 -4.4009641425681e+00
2176 1 2.0882342271194e+01 8.5349735169273e+00 8.3033161410502e+00 -3.9170806041647e+00 -5.0617193957014e+00 8.9186048733940e+00 -5.0853605209543e+00
1434 1 2.0969735849993e+01 1.0882562463721e+01 1.4643468073532e+01 -4.1833145115448e+00 -1.7222693058856e+00 -2.7968547792192e+00 -1.3961653514607e+00
890 1 5.3435438688854e+00 1.3542132011116e+01 9.3588812188598e+00 -3.6163256379592e+00 -2.1549087360645e+00 4.2872130839750e+00 4.3303978829811e-01
3337 1 8.9451845371170e-01 8.0427545792405e+00 3.5817400500266e+01 -4.1569896962196e+00 2.8829178197377e+00 -6.3551865722938e+00 1.7411115989604e+00
1726 1 1.6481588794104e+00 1.2533108316693e+00 4.1881704250041e+00 -4.2891154913949e+00 -5.1271992883016e-02 4.1283470494259e+00 -5.1966880320875e+00
1168 1 1.8790350616575e+01 3.8062523005230e+01 4.0004293371361e+00 -3.9260977790205e+00 -5.3267903676087e+00 7.3821788819819e+00 2.9301155084208e+00
3888 1 8.9555100433442e+00 1.3451684556918e+01 1.5264725186944e+01 -4.2057452596586e+00 -3.9321776486504e+00 5.0015240110836e-01 -3.8377872902563e+00
1164 1 2.7882585541148e+00 3.7353331280739e+01 1.4845509754216e+01 -4.1584838198226e+00 1.8582823447887e+00 1.2242721320931e+00 -4.6211245712679e+00
2593 1 5.1588145602101e+01 1.0389640219390e+01 5.8479292139602e+00 -4.0856322866154e+00 -6.9310535058354e+00 -1.8923682250908e+00 3.7781022247528e+00
1638 1 4.8110905884936e+01 9.0304589260705e+00 8.6599052674112e+00 -4.0592911861551e+00 4.9242635874354e+00 1.2523614936175e+01 -1.8683384015617e+00
1922 1 4.8176704847598e+00 3.4925101223518e+01 4.0868940810122e+01 -3.7524348830631e+00 -3.0208827131235e+00 2.4417732543728e-01 2.2623454579998e+00
3376 1 1.3700066965332e+01 1.4463957179451e+01 1.2500553789485e+01 -4.0775376408040e+00 5.5486997638660e+00 7.4997460546475e+00 -5.3339252000951e+00
456 1 6.4000360939451e+00 6.5419139123203e+00 7.8539829210637e+00 -3.7658881632213e+00 -1.3347901922701e+00 7.5092185470970e+00 3.7199519722255e+00
1179 1 6.9674892405223e+00 1.2076795592939e+01 5.5664090111428e+00 -4.0398099816809e+00 -1.2244037787598e+00 -6.0749407738439e+00 -9.7211620749864e-01
2995 1 6.1470898133952e+01 9.9973380822927e+00 3.4145534584654e+01 -3.6999260416341e+00 4.7520851542265e+00 -2.1290214002197e-01 4.0441267248478e+00
195 1 5.3084228624991e+01 1.1788326960428e+01 9.3701100162318e+00 -4.1354670648978e+00 -1.9999216606927e-01 3.9956470579912e-01 1.0288513177738e+01
1952 1 5.6124159201600e+01 3.5738777815363e+01 5.6486183058966e+00 -4.0479251842815e+00 9.5999985295646e+00 8.0893562856373e-01 6.2832549792085e+00
3699 1 3.2952330611660e+00 1.1789074169098e+01 4.1336790042029e+01 -3.8889152656998e+00 5.8407255238753e-01 -1.7305519353591e+00 2.8466727504852e+00
178 1 1.0535346110059e+01 1.1124946351244e+01 2.0139825560794e+00 -4.0038561086947e+00 -3.5615045759307e-01 2.1150174916072e+00 6.6050865670718e+00
1452 1 9.1572727710880e+00 1.1228844429189e+01 1.3914870031389e+01 -4.1052475973225e+00 -6.3552045515183e+00 4.0705167952648e+00 -7.5761448947576e+00
744 1 9.3731460575208e+00 3.7128265365289e+01 1.1908611419561e+01 -4.1537066145138e+00 -4.1251149588849e+00 -2.9913434061868e+00 -6.6906686549318e+00
760 1 4.5503622782123e+01 4.1453802914161e+01 7.2355328708298e+00 -4.0584636285985e+00 -4.9699126728803e+00 3.9433190274005e+00 5.3181099848361e+00
3542 1 1.3586797523717e+01 1.1915190617435e+01 5.4282930510816e+00 -4.2678826476977e+00 3.4078250358281e+00 3.4129428606876e+00 -2.9691024916817e+00
3406 1 2.7863722352465e+00 1.6996842569583e+01 4.8792859975422e+01 -4.1633294347232e+00 1.9625359013212e+00 -5.0057358342044e+00 4.1543604528946e+00
183 1 1.9199731755677e+01 1.2324644433830e+01 9.8721828049661e-02 -4.0512715575462e+00 2.9370075513754e+00 -3.3324341705877e+00 -3.6924912389249e-01
207 1 8.7632555677450e+00 6.3036920843840e+00 7.3694407076823e+00 -4.1917236027067e+00 -8.1721904604690e-01 2.4987445202718e+00 -1.4671943307753e+00
69 1 1.6961363103800e+01 1.3631278722858e+01 1.0755936497573e+01 -4.0592550282535e+00 -4.6639235682787e+00 2.4574952794309e+00 -3.4628881291911e+00
3141 1 2.0796057078032e+01 5.0837400138006e+01 1.1302078380782e+01 -4.0309419286617e+00 -6.0722294206380e+00 -2.1360261370246e+00 -2.7462111744066e+00
2443 1 1.6988051487376e+01 1.9964994321366e+00 3.5412580891425e+01 -4.1191965492814e+00 2.0203863021583e+00 2.2245817391686e+00 2.7666561056358e-01
2866 1 1.2449189582125e+01 6.7357195720348e+00 4.1892427335581e+01 -4.1534675578134e+00 8.5677639363323e-01 -7.6597420531006e-01 4.9552131236803e+00
2073 1 1.0326823017281e+01 3.6655542553526e+00 3.3799089778165e+01 -4.1237143718113e+00 -5.5531391644059e+00 -6.0041634012030e+00 -2.3760996709036e+00
585 1 2.0064385433112e+01 6.5722623306935e+00 9.1678563871418e+00 -4.0340175473278e+00 3.7350681400546e+00 1.9378529164147e+00 8.0079850654154e+00
639 1 5.3959873070872e+01 1.1978236777742e+01 5.5680289787890e+00 -4.1909526172320e+00 7.0746167192652e+00 1.1944670287928e+00 -5.4046664173075e+00
2858 1 1.6629135772863e+00 1.1336583115442e+01 4.3299064823151e+01 -3.9361237675810e+00 1.8526093606008e+00 4.9732561188612e+00 -3.4702998459274e+00
3986 1 1.4278660933117e+01 4.4706222679791e+01 3.6900358480850e+01 -4.0936704171651e+00 -5.1632517342727e+00 -2.3622157926361e+00 7.5932981499421e+00
2085 1 2.8611377244105e+00 7.8731310156952e+00 4.8326787743743e+00 -4.1009341963689e+00 -3.1810849035573e+00 2.1973051796442e+00 -5.7130029966689e+00
1820 1 6.9198091641584e+00 9.5213579388421e+00 1.4516772304603e+01 -4.0351507342924e+00 5.7183897940011e-01 3.5513216927019e+00 -3.4556037003598e+00
1062 1 9.4440531004679e+00 1.5750067291765e+01 1.4160934726224e+01 -4.1218151046177e+00 -6.2166596303874e+00 6.3779532256294e+00 -4.6365749465734e+00
2214 1 8.3456781375539e+00 2.8021867740787e+00 5.2525415230708e+00 -4.0856148079662e+00 -2.7973416245093e+00 2.7375545053503e+00 3.0136584160764e+00
2695 1 1.7385509608837e+01 1.3589660726198e+01 3.8885340564273e+01 -4.1773023968315e+00 -1.6350574865286e+00 3.0694342611159e+00 6.5479325567896e+00
3251 1 1.4673127345493e+01 3.3639718245871e+00 3.9144172945988e+01 -4.0967964880825e+00 -2.9126918261675e+00 -9.0896818442250e+00 3.3849611522119e+00
1464 1 1.5689831523418e+01 1.7187054007428e+01 1.1785218447619e+01 -4.1588771297256e+00 6.2061062281094e+00 -2.4962994499281e+00 1.1014131390532e+00
1181 1 2.1005867454971e+01 4.2966044456937e+01 6.0934132342700e+00 -4.0357880493261e+00 -8.9954526540304e-01 -4.4353410279375e+00 1.9567643412083e+00
3819 1 7.3181790309203e+00 1.6590938186718e+01 4.0807913560932e+01 -4.0425525293288e+00 -1.5612287222477e+00 3.3198789730361e+00 1.2613324455181e+00
393 1 4.9087192727975e+01 1.3249553007188e+01 1.1485931119285e+00 -3.7318839292613e+00 5.0148093146132e+00 -4.0620960105586e-01 3.9357763972489e+00
3717 1 4.6175905014498e+01 1.2432381509524e+01 3.4904607255320e+01 -4.1446858547166e+00 9.4969539279416e+00 -1.2534422619322e+01 -7.5402704798825e-01
903 1 1.0374487346067e+01 1.0035774095951e+01 7.4613865847837e+00 -4.1091457537735e+00 -3.4085774965220e+00 -3.9232077729104e+00 -2.0015723711291e+00
2108 1 2.1404770310922e+01 9.8290379528206e+00 4.0114611399173e+00 -4.2809766965243e+00 8.6166248921871e-01 3.9290086457845e+00 3.0076179601796e+00
3391 1 4.3206314059180e+00 2.6885896295388e+00 4.2143428446891e+01 -4.0983480006327e+00 4.0208640040496e+00 -7.7179888727308e-01 -4.9131062067965e+00
1553 1 1.8847275048947e+01 3.9592641194439e+01 1.0393099104937e+01 -4.2396909377708e+00 2.6543751241300e+00 2.1617225073797e+00 -6.2015163445264e+00
1831 1 1.6421093324996e+01 1.0072995812018e+01 5.6686039433463e+00 -4.1117634311889e+00 -1.5709202159920e+00 -3.6728224866916e+00 -6.8782942965108e-02
1306 1 5.3314791025139e+00 -2.4982400003044e+01 1.2806777250113e+01 -3.8693840596695e+00 2.1065214770111e+00 -2.3330529380207e+00 -5.5107032581431e+00
138 1 6.3340808515513e+00 7.1237155656388e+00 1.0648034051281e+01 -4.2194359737193e+00 -6.4574241681692e+00 -1.1073687637052e+00 -4.9452528453163e+00
1454 1 4.6607230655830e+00 8.4384972353516e+00 6.4683668060342e+00 -3.9768576847354e+00 1.9525770277600e+00 -1.5028724399862e+00 -3.0585599741691e+00
1057 1 1.8915367810523e+01 1.2397567728004e+01 1.0622196118865e+01 -3.8446284427807e+00 5.3526803559781e+00 -6.2779215119437e+00 -2.5412746599206e+00
2935 1 4.6110838421478e+00 1.5517260867850e+01 1.1842488881872e+01 -3.8480191939671e+00 4.0825413171621e+00 3.1997510616277e-01 6.4764181826752e+00
3970 1 1.0118386207868e+01 4.8957390861129e+01 3.8406772982029e+01 -4.2213923434318e+00 6.0514132914440e+00 2.9695735145903e+00 -6.3259031460392e+00
939 1 5.7631175489344e+00 1.1266621952608e+01 8.8660532229607e+00 -3.9455780840117e+00 2.8016060453739e+00 2.0010633357279e-01 2.5747821824448e+00
603 1 7.8534359473804e+00 1.0496463260212e+01 1.2256182908584e+01 -4.0723617635711e+00 -5.6422430044640e+00 1.9196368154700e+00 -7.9543489569007e+00
1216 1 1.2324744350056e-01 9.3202731187201e-01 9.0219830186075e+00 -4.0278921446617e+00 2.5734906683616e-01 5.2545802958003e+00 5.4799902725520e+00
866 1 6.3608564039673e+00 5.3966923138780e-01 1.0018161909274e+01 -3.8861329219879e+00 -9.6576560233428e-01 -6.5263236804109e+00 -2.8873995028334e+00
517 1 5.0965974074661e+01 1.2814326397690e+01 1.2295807409715e+01 -4.1826795347011e+00 6.4063898552168e+00 1.6940708145376e+00 6.5929085956568e-01
779 1 1.1674925145669e+01 3.8526535669841e+01 8.4581960937352e+00 -3.8242371304364e+00 -6.4818613008465e+00 1.8096606230089e-01 -1.4024676741973e+00
257 1 1.0310454078360e+01 7.8411573723343e+00 8.6927208525169e+00 -3.9890946521622e+00 1.5412414847453e-01 -1.7881619748189e-01 4.6018040389623e+00
2968 1 1.6612001700828e+01 1.6063510594003e+01 6.1010518937505e+00 -4.0854873442881e+00 1.1019742667755e+00 -2.3140155831222e+00 3.2420585014519e+00
990 1 1.7995420566372e+01 1.5037476739338e+01 7.9238119869293e+00 -4.2802791110477e+00 8.5684644375353e+00 -5.2750352380415e+00 1.3678187509258e+00
3276 1 5.1364086236197e+01 1.1927545164294e+01 3.3334913978053e+01 -3.8672007699007e+00 1.5974630387357e+00 6.1494818613662e+00 4.7895073255723e+00
147 1 1.2702801481194e+01 1.1925426959142e+01 1.2575049412109e+01 -4.1078098655126e+00 -2.2057129271756e+00 -7.5769151124417e+00 6.8791340836429e+00
1092 1 3.1478582429985e+00 3.9175060070366e+01 1.0323543846967e+01 -3.9962117464330e+00 -1.1672488705582e+00 6.0387708943630e-01 2.8266967663085e+00
869 1 1.1883584586119e+01 5.6354784197673e+00 6.7554580714917e+00 -3.6279009642859e+00 -2.3725898216637e+00 1.2442025942569e+00 -8.6876263785716e+00
3808 1 4.1608088696576e+00 8.1853478963802e+00 4.3580903360227e+01 -4.0323731750614e+00 6.4559849365127e+00 -5.8567200763993e+00 4.5661330727333e+00
3552 1 5.7682415519014e+00 4.5108821376399e+01 3.9510602768051e+01 -3.8646353434425e+00 6.3035741897439e+00 -6.0240234326127e+00 1.6076923894930e+00
2776 1 2.2683422582311e+00 3.9785179443945e+01 5.0826654589944e+00 -4.2948859308716e+00 -7.8574230416723e+00 5.9033580655773e+00 2.2978739867455e+00
785 1 1.4347126122385e+01 3.6689154840214e+01 2.5977067458369e+00 -3.7768164711946e+00 -3.8326800519579e+00 4.4862539560751e-01 -2.8504721063559e+00
163 1 9.9911813874784e+00 9.3296809921610e+00 1.2558825484991e+01 -4.0577722307324e+00 3.7534994822928e+00 -6.8615930469109e+00 2.8607250314656e+00
581 1 9.9605233641718e+00 6.6581414061610e+00 1.2906424455669e+01 -4.1161414347095e+00 1.0300552482193e+01 1.0919354642657e+01 -3.1323555966526e+00
513 1 4.4957304676618e+01 1.0291877898061e+01 1.4744862964051e+01 -4.1026705001694e+00 4.9102534329545e+00 5.0056623935803e-01 9.7200925060087e+00
2177 1 1.4547675095680e+01 1.0224705431939e+01 8.8595475818307e+00 -4.1489590520854e+00 -4.4654788704700e+00 -3.0749330689247e+00 -3.0583841787198e+00
190 1 1.3520721551222e+01 1.6251100099266e+01 6.5202279041900e+00 -4.0608304185581e+00 -3.9993683321288e+00 3.4492933734542e+00 -2.0510626379588e+00
3453 1 1.2840537164897e+01 1.5486870583885e+01 3.4983616883042e+01 -4.2194858034832e+00 2.3558253600546e+00 3.6237048140936e+00 -7.4383492872880e+00
1572 1 1.6446148955655e+01 4.6790826820976e+00 1.0460943273829e+01 -4.0816712090177e+00 7.2154980038973e+00 3.6920183979941e+00 3.5616599759927e+00
3054 1 1.5430718542060e+01 1.4522486720245e+01 1.4660752168511e+01 -4.0243976412788e+00 3.2201746746145e+00 -2.9230621910799e+00 7.4505607468326e+00
609 1 7.9206441360147e+00 1.0440941119173e+01 8.1187569668083e+00 -4.1024920251692e+00 2.9916757686572e+00 -1.5604636978602e+00 6.2902853120830e+00
205 1 5.7834118354232e-02 1.2019480252838e+01 4.9480554943181e+00 -4.0205690124270e+00 -8.8121088818029e+00 -6.3461986660923e+00 2.7745226490860e+00
1735 1 1.3754304282064e+01 1.2928136366560e+01 7.8874716848336e+00 -3.9733336380119e+00 7.3390389907722e-01 -1.5750288540148e+01 4.9760242704697e+00
1355 1 5.1855828642937e+01 5.5043159665866e+00 2.7288182079154e+00 -3.8474567450809e+00 6.4873791634316e+00 -1.3079152575588e+01 -5.5719706263051e+00
1001 1 6.4526841726306e+00 7.1716954868764e+00 1.5310394100692e+01 -4.1620380408820e+00 9.2766340828394e-01 -5.8009974325699e+00 -1.5970164162374e+00
2884 1 1.5471230872096e+01 1.5970713946841e+01 4.0808375987647e+01 -4.1200333867883e+00 -5.2625351532841e+00 9.6132810997613e+00 1.7187303754746e+00
820 1 -2.3702405980611e+01 1.1219224084877e+00 2.9207105237878e+00 -4.1285844719346e+00 -1.7316149874287e+00 1.1299073236120e+00 4.1291157246405e+00
3943 1 1.6497784404704e+01 4.1095038770801e+01 4.2042923380472e+01 -3.7774800889164e+00 -2.3694970247292e-01 6.1288534440587e-01 4.1780540376838e-01
1266 1 1.9282009234716e+01 1.2791394592417e+01 1.5285019447294e+01 -3.8057370604930e+00 -4.7589096193716e+00 -4.1269503471450e+00 -3.3533550892889e+00
1156 1 5.7456529373294e+01 4.0223721105431e+01 7.4780147243579e+00 -4.1905290136932e+00 2.2217676828286e+00 2.7703491089432e-01 4.2771477602148e+00
2016 1 1.8760854498791e+01 2.2574868627147e-02 1.4901250236510e+01 -4.0289812683488e+00 1.0208519653325e+01 2.2118196294114e-01 2.0395822651085e+00
1761 1 -3.3409139954234e+01 8.8852042384813e+00 1.4692601350397e+01 -4.1185180797988e+00 3.7689842099470e+00 2.5202395630442e+00 -1.1059960873693e+01
2697 1 1.1340406809766e+01 1.6856660115123e+01 1.5620815209468e+01 -4.2944310417503e+00 -9.4641513729211e-02 4.3537957370437e-01 4.0262790253384e-01
3416 1 1.7471516059688e+01 7.3946413541704e+00 4.5938405384630e+01 -4.1237640449809e+00 -2.2678433140023e+00 7.2593915981483e+00 8.3409217793882e+00
986 1 4.4444225172573e+01 6.1172001591966e+00 7.2668004583200e-01 -4.0657029044417e+00 -7.3569878109997e-01 -2.5194292170854e+00 -3.3593835843615e-01
1650 1 1.9683634521260e+01 1.3327058056528e+01 6.8914111719387e+00 -3.8749682331266e+00 3.7640847931891e+00 3.9296119882662e-01 -2.8640187161643e+00
953 1 1.1582777853252e+01 7.4116300115794e+00 1.1283985635320e+01 -4.2306329571298e+00 2.3923035805002e+00 4.6215194945666e+00 5.8431596634549e-01
1174 1 1.6120430636099e+01 3.5561345012964e+01 7.2247254568097e-01 -4.0953112519996e+00 -4.8027327996350e-01 -4.1250467529817e+00 2.8389251627873e+00
1218 1 6.7196560022535e+00 9.9731710602005e+00 4.3500505561914e+00 -4.1479450021373e+00 -1.8718001903643e+00 2.2376133626817e-03 -4.5126637826575e+00
579 1 6.3169690932796e+00 1.6801039560963e+01 4.9052273944097e-01 -3.6920381742978e+00 -2.9346700163415e+00 -3.5687110802086e+00 -3.1920348164134e+00
1655 1 1.7011704638903e+01 1.2772693850069e+00 1.3791156992687e+01 -4.0988292934205e+00 6.2631825354890e+00 2.5529665733995e+00 2.2221842369112e+00
1498 1 1.3794252287476e+01 8.1263616099658e+00 1.0718674485581e+01 -3.9638445774529e+00 -1.2533452144349e+00 -5.9845682049040e+00 8.6725920557787e+00
2464 1 1.1121659287659e+01 1.4386778635346e+01 1.5417126088249e+01 -4.1927510638338e+00 4.7284020623225e+00 2.5010550941126e+00 1.2868541971356e+00
221 1 7.8750381507395e+00 1.1549247101271e+01 1.0101678213256e+01 -4.1408343803407e+00 8.3702362754823e+00 -1.3125501819400e+00 -6.0381559254154e+00
3408 1 1.7477616467983e+01 3.5728064455276e+00 3.8807281633092e+01 -4.0738541064347e+00 -5.2870039914036e+00 5.7666635182725e+00 1.8587056897046e+00
3926 1 8.9945558998198e+00 3.7936324815439e+01 4.1584486103472e+01 -4.1506485097452e+00 1.7497277434789e+00 5.1722508259092e+00 -9.4537922574557e+00
3945 1 2.0401965909709e+01 1.3850956692946e+01 3.5121165749022e+01 -4.2367233714947e+00 6.3950889969720e+00 -4.3249703943059e+00 -7.1802381350759e-02
589 1 5.7304282083575e+01 5.8763381172601e+00 1.0116585663987e+01 -3.9077735184146e+00 1.6524129375095e+00 3.5045578839050e+00 -6.6621470852447e+00
2987 1 1.6211747812691e+01 1.7117833802408e+01 3.6655119425637e+01 -3.9125296023628e+00 1.4513080330285e+00 -1.0330914172749e+00 -6.7758756193072e-01
3781 1 9.0086872964351e+00 1.4820433588996e+01 4.0579800990793e+01 -4.1445574084165e+00 -5.2943418135116e+00 -1.2065656923982e+00 1.5959505217635e+00
199 1 5.4541978371523e+01 8.9072744002306e-01 1.1690490980973e+01 -4.0134676937849e+00 8.3756812837709e-01 2.3457151355529e+00 -2.4063073596238e+00
2139 1 2.0426287610821e+00 1.3064880524518e+01 7.7977626010943e-02 -4.2764977223899e+00 -4.7068635712074e+00 -3.4771327711282e+00 -4.5602073241132e+00
1258 1 1.4798155002547e+01 1.3918279223055e+01 6.1451013504848e+00 -4.1778189286780e+00 -4.7845694263915e+00 4.8428100184710e+00 4.7248811432066e+00
247 1 8.9737645465827e+00 1.3690903443067e+01 1.0169180232561e+01 -4.0174239856929e+00 -3.7056081114208e+00 -4.6030543217529e-01 4.1612596118524e+00
1369 1 1.4162783357926e+01 9.7639446566757e+00 6.4402953659425e+00 -4.0712425021444e+00 5.7601027640232e+00 2.7061831056006e+00 3.6344997734882e+00
2106 1 1.6235733191028e+01 9.2232810822468e+00 3.3659425260836e+01 -4.0442771022692e+00 -1.0214243144545e+01 4.5959494444227e+00 5.9485061752375e+00
1722 1 7.1280904971591e+00 1.2804449940175e+01 7.9459539262916e+00 -4.0077048647279e+00 -1.2088723278118e+00 -4.9115441089866e+00 5.4699482293772e-02
3860 1 7.6275008027128e+00 5.4517258861905e+00 4.2219137585931e+01 -4.2251560960718e+00 -2.5064305600735e+00 -4.4086139211757e+00 4.1283594928072e+00
842 1 7.3903674582206e+00 1.5579736263043e+01 1.3022074290337e+01 -4.0870623716337e+00 2.9610748160043e+00 -5.5533316037128e+00 8.4122098594536e+00
2949 1 1.8180487544063e+01 5.9081944769740e+00 3.7437575277788e+00 -3.7672887055817e+00 -4.5082423335879e+00 -4.2817756495280e+00 3.2261260412932e+00
1105 1 6.8818561228335e+00 4.6650388824647e+01 1.4118457795860e+01 -4.1499396512524e+00 -4.4576390534053e+00 -1.4083361302529e+00 3.6796391498007e+00
1733 1 9.0613441791588e+00 1.9826534868261e+00 1.4254787368038e+01 -4.0692745336336e+00 1.7738549516941e+00 -3.1890692047957e+00 7.0619686437508e-01
3531 1 1.5989258800584e+01 3.7874711817530e+01 3.3870366709995e+01 -4.0219422270036e+00 -7.1818459855550e-01 1.4059236633807e+00 1.6357803651418e+00
1731 1 3.9119585653464e+00 1.3313989021431e+01 1.1437522435495e+01 -4.0381617570209e+00 6.2967046831653e+00 1.2238930782681e+00 3.1345517065299e+00
786 1 1.9251830502503e+01 4.9345071629444e+01 1.0220202751948e+01 -4.2681295522616e+00 -8.0480372577303e+00 2.3385662834487e-01 -6.9262143621639e+00
2902 1 5.8054614646798e+01 5.4679946486663e+00 4.5772924258880e+01 -4.1156955654436e+00 -2.7744234433944e+00 -4.4149854674502e+00 7.4922442463091e-01
240 1 5.3511701317082e+01 1.7156603958077e+01 -2.1311610878828e+01 -4.1089803143246e+00 1.9545200344570e+00 -1.0119760359996e-01 3.4522456946741e+00
1568 1 6.6763732431681e-01 4.2520842845808e+01 8.0310661067707e+00 -4.0074885526781e+00 -3.4046982937636e+00 -2.7823741460470e+00 2.4068433061936e+00
3347 1 1.0334290852229e+01 1.5812602613933e+01 3.4870282627481e+01 -4.2012214310326e+00 -4.3956629612413e+00 9.4017386812877e+00 3.6735952277248e+00
1267 1 1.0945245658259e+01 2.5343868543328e+00 9.9741294074336e+00 -3.9752607246954e+00 6.4656809861217e+00 -7.5536993834000e+00 -1.5847413267481e+00
3777 1 9.1610142471710e+00 4.2787159290025e+00 1.3844411270847e+01 -4.1040581037924e+00 -2.4888481515684e+00 8.4959811662426e-01 -4.0291231354368e+00
846 1 1.4743578103332e+01 6.5046762387984e+00 4.2639239829365e-01 -4.0441489137575e+00 6.2016461820228e-01 1.0287280925245e+00 5.2442474630753e+00
1690 1 2.0875023740549e+01 1.7158604334225e+01 5.2797722359948e+00 -3.9897451895415e+00 5.2784365372816e+00 -1.4532914824314e+00 7.6342316508173e+00
2894 1 7.3828476299754e+00 4.2890044445849e+00 3.9857379375041e+01 -4.2931776096268e+00 -4.7347856577004e-01 4.6699042859994e+00 3.1961958439149e-01
373 1 1.5233290209530e+01 4.2857204151665e+01 2.8589226588149e+00 -3.7577579778747e+00 -3.6306110183418e+00 2.4991716815593e+00 -6.7446027565176e+00
2818 1 1.2260648682193e+01 9.1265647946222e+00 3.5557728853148e+01 -4.1384367882714e+00 3.1186533942914e+00 6.9786775834464e-01 -1.5607097056742e+00
171 1 5.2302022515308e+00 1.5933104220046e+01 1.4167425916670e+01 -4.0701623338884e+00 1.3547049565395e+00 3.9925112927023e+00 -4.1079805270306e+00
1698 1 2.7203241952466e+00 1.2137150045674e+00 8.2683837007873e+00 -3.9846462622193e+00 -1.2334808509128e+00 1.5825105725114e+00 -2.3118972620438e+00
1162 1 3.1557307709659e+00 1.6991503680181e+01 1.3510312518561e+01 -4.2630569770633e+00 3.9826680551216e+00 1.5302884210854e+00 -9.9046362883056e-01
2721 1 4.5122750291261e+00 4.0210681373709e+01 6.2764585751658e+00 -3.9335936213806e+00 -7.2643978331564e+00 -2.5188892556894e+00 -4.6580010069055e+00
2004 1 7.1509221194778e-01 2.3293242703024e+00 1.3425262456342e+01 -4.0399978211099e+00 -5.2141956744374e+00 3.1024685210159e+00 4.6356430821099e-01
1065 1 1.9907770188404e+01 4.1312076040697e+00 1.2570507318196e+01 -3.8990565080139e+00 6.3839866034681e+00 -2.2259709191829e+00 5.1774259194079e-01
3396 1 4.5618968863210e+01 1.0720939667900e+01 3.3574222130868e+01 -3.9521152076298e+00 4.3178569692306e+00 7.9730803675489e+00 -1.5129023737537e+00
3616 1 1.8108374873430e+01 5.5359659131391e+00 4.0798912618109e+01 -3.8753671850611e+00 2.9814557075528e+00 2.0866053083627e-01 -4.5022191500562e+00
1653 1 4.9382608712295e+00 3.4431612183064e+00 1.6031594008422e+01 -4.0845288982267e+00 2.1864813726389e+00 1.0725501998536e+01 -6.5457630826073e-01
3200 1 5.6458644128063e+01 4.3477040651227e+01 3.3585532325310e+01 -4.2037730186899e+00 -1.3223586328709e+00 -5.1433650527002e+00 -9.6870010236169e-01
2100 1 2.0268017509658e+01 1.5243787239284e+01 8.0774383050451e+00 -4.0294014412677e+00 -1.0645522247891e+01 -2.5529405718740e+00 -4.7746410338496e+00
3911 1 4.5532444790129e+01 9.0794529564962e+00 4.2033536186966e+01 -3.9764028765223e+00 -1.4546343571378e+00 -4.2156348238515e+00 -3.6227717975244e-01
2707 1 1.0135740991585e+01 4.0873685087815e+01 3.3431134353640e+01 -4.0690915281709e+00 -8.4669769659406e-01 -3.8064386907928e-01 -2.4535220205225e+00
2812 1 1.0575706989698e+00 3.0877921084853e-01 1.1435152340603e+01 -4.0802619904940e+00 7.2625129216108e+00 -7.4387599822377e+00 -7.3010283477004e-01
2865 1 1.0312184049729e+01 7.4868965673239e+00 3.5624278542234e+01 -4.1365450955469e+00 -4.1299591037435e+00 3.9388094949739e+00 -8.4977977912267e-01
3217 1 9.7111791796033e+00 6.9997683313902e-02 1.5173348728941e+01 -4.0360778832596e+00 -6.1256373880140e+00 -3.3106406349469e+00 1.9642862442914e+00
1978 1 1.1245752608823e+01 4.0517187018080e+01 1.5149454074851e+01 -4.0549191754907e+00 1.1880904311743e+00 4.8052861825181e+00 1.0773523994143e+00
2415 1 6.5867286034536e+00 2.1789453657993e+00 4.0750904862190e+01 -3.9604058677541e+00 -3.4783937713809e-01 -4.1525533845032e-01 1.9130374848568e+00
1486 1 3.1006582168624e+00 1.4042657959834e+01 3.9297788161088e+00 -3.9747528866101e+00 7.4980734327429e+00 7.8526434208655e-01 -2.1460316525925e+00
1587 1 1.1461517162229e+01 3.5837526050235e+01 1.3950868522913e+01 -4.1522328284097e+00 -1.2487845922022e+00 6.3808601964433e+00 5.8517839906598e+00
539 1 2.1160200131460e+01 4.4669142182254e+00 7.1949316812600e-01 -3.9261423426134e+00 1.0863035601477e+01 7.9432550501975e-01 3.7718183236874e+00
3333 1 1.1170822085498e+01 3.6063630260354e+00 4.7474916400919e+01 -4.0248881252329e+00 -6.7196512449674e+00 -1.3232051262887e+00 -2.2556055021706e+00
3856 1 1.4142262815516e+01 1.2899811054397e+01 3.6171924297571e+01 -4.0948120579080e+00 -3.0163086244968e+00 6.0600957690011e-01 -3.4313053905415e+00
3632 1 1.6530981363759e+01 5.7368985108735e+00 3.8448807417073e+01 -4.0982018575546e+00 4.0436569690568e-01 1.3588254007593e-01 4.5548294835393e+00
1862 1 7.2070891249625e-01 4.0802569567222e+00 1.5976175678570e+01 -4.2661296976437e+00 1.7499317146928e+00 9.4659288917943e+00 1.0864020303471e+00
2787 1 5.1701384613937e+01 3.5583839357534e+01 9.7556138690071e+00 -4.0534897906896e+00 9.9867647549967e-01 -9.4736453743922e-01 -2.4486856786984e+00
1500 1 1.2755486221165e+01 1.1660801554168e+01 9.7414361500905e+00 -3.9325587937686e+00 3.8041390038685e+00 5.7329273621547e+00 3.8489625775749e+00
923 1 1.2314568803336e+01 1.1215922486849e+01 7.4660884860383e+00 -4.0532884720236e+00 4.1531016196580e+00 -4.9248609809725e+00 8.0511777121353e+00
2059 1 1.6398560165555e+01 7.7871899331359e+00 7.2055874748665e+00 -4.2398384349869e+00 -7.0334819190790e+00 -1.8985223468685e-01 4.0477212823584e+00
22 1 1.4380214819008e+01 7.8498243274538e+00 8.4000884708807e+00 -4.1665772614346e+00 1.5791097640119e+00 -5.8112109951627e+00 -3.7309548554747e+00
1746 1 8.5870617612245e+00 1.6283187348767e+01 1.0296432187717e+01 -4.0500597252068e+00 -2.8385055695556e+00 -6.7534037195711e+00 -7.5259222651644e-01