ITEM: TIMESTEP
420000
ITEM: NUMBER OF ATOMS
500
ITEM: BOX BOUNDS xy xz yz pp pp pp
-7.3386703956124164e-02 1.7553700981608149e+01 -1.7239976788070422e-02
-5.5412616807343440e-02 1.7556064975174930e+01 -2.4457455615482459e-03
-6.9000937748580071e-02 1.7569000937748839e+01 6.5235836723197217e-04
ITEM: ATOMS id type xu yu zu c_pe c_ke
257 1 1.3999790505902e+01 7.0231794485155e+00 6.9682143879221e+00 -4.4442514973918e+00 1.0417739331569e-02
2 1 -6.6898837229985e-02 1.6730437895987e+00 1.7142092625721e+00 -4.4380792780056e+00 4.1292677306864e-03
8 1 5.1772494777464e+00 1.6486190061794e+00 -6.6466772770196e-02 -4.4426601810781e+00 1.8526493808104e-02
21 1 -6.9745574808010e-02 3.4445532585914e+00 -5.8226124677909e-02 -4.4406836952579e+00 4.0815659917892e-02
48 1 5.2222740799692e+00 8.7071798093113e+00 -6.0394702472113e-02 -4.4393800481635e+00 2.2035099966617e-02
6 1 3.4885342690056e+00 1.7444573050389e+00 1.6962377486436e+00 -4.4345630276313e+00 6.5831071774127e-03
260 1 1.5857247767914e+01 8.7746176916345e+00 6.9829065764863e+00 -4.4295118186754e+00 2.3429039235444e-02
115 1 1.2291089140955e+01 -3.4242764389678e-02 5.2592567061236e+00 -4.4392701467146e+00 1.4211477181551e-02
253 1 1.0456302749295e+01 6.9808031800443e+00 7.0135965319505e+00 -4.4351952883227e+00 9.3107454420135e-03
10 1 7.0169578868651e+00 1.7581201706885e+00 1.6564413347570e+00 -4.4444570791503e+00 3.2680897830795e-03
248 1 5.2207773448010e+00 8.7805713720459e+00 7.0006228520827e+00 -4.4455866426287e+00 1.0459492675602e-02
230 1 6.9526251550874e+00 5.2482574576461e+00 8.7845099519190e+00 -4.4405629793011e+00 1.1715619670083e-02
249 1 6.9755676933025e+00 6.9742814202408e+00 7.0002107791137e+00 -4.4416936505221e+00 5.1577568683597e-03
14 1 1.0454143499166e+01 1.6974413998095e+00 1.7410786416148e+00 -4.4291002914456e+00 1.4020977945927e-02
245 1 3.4615213037895e+00 7.0229571343285e+00 6.9634593844495e+00 -4.4385119891587e+00 1.4319870946546e-02
107 1 5.2651828876814e+00 -8.1673609169795e-02 5.2467070215407e+00 -4.4262360055831e+00 2.5954649149001e-02
239 1 1.5803994703952e+01 3.4754373946789e+00 8.7720359210052e+00 -4.4497675338314e+00 2.7947425281336e-03
18 1 1.4058800897651e+01 1.6968040640120e+00 1.6825762243339e+00 -4.4414305319847e+00 9.3136208312484e-03
241 1 -4.4776412284091e-02 7.0052871548828e+00 7.0005201967798e+00 -4.4518079229719e+00 1.0665396898075e-02
244 1 1.7508023874432e+00 8.7865115199884e+00 7.0564803485825e+00 -4.4332496056825e+00 1.7987985055743e-02
25 1 3.4734253873090e+00 3.4897496053184e+00 -5.7426052523008e-02 -4.4387663685347e+00 1.9509133461996e-02
22 1 -1.4542732373997e-03 5.2268749923957e+00 1.7199993432156e+00 -4.4236792764177e+00 2.2227929220659e-02
23 1 1.7589903491275e+00 3.4897831414112e+00 1.6623587314177e+00 -4.4263762861435e+00 1.4462207717229e-02
37 1 1.4074117659975e+01 3.4460123267916e+00 -7.8520082597010e-02 -4.4349341895590e+00 1.2296945313269e-02
256 1 1.2230665005923e+01 8.7661426552621e+00 6.9678859240583e+00 -4.4405162635058e+00 8.9824673128472e-03
26 1 3.4740721781787e+00 5.1957652488560e+00 1.6916187884631e+00 -4.4472099281379e+00 3.8655587943160e-03
27 1 5.2390748274954e+00 3.4926960219425e+00 1.6920835353019e+00 -4.4386227472670e+00 5.0685452560718e-03
50 1 6.9886590254819e+00 8.7148567867407e+00 1.6797426167043e+00 -4.4470495456460e+00 1.4943513628487e-02
205 1 3.3711892132009e+00 -4.5671885059492e-02 6.9823285857802e+00 -4.4467007334003e+00 1.2884669799439e-02
30 1 7.0089052579796e+00 5.1983700188753e+00 1.6893952466012e+00 -4.4406360405799e+00 4.2867872485932e-03
31 1 8.7750730380189e+00 3.4728874985212e+00 1.7430377486658e+00 -4.4377648991676e+00 1.1190758008967e-02
150 1 6.9655686707628e+00 8.7089206771941e+00 5.2136458073274e+00 -4.4471438691231e+00 6.9758722676972e-03
148 1 5.1953350135917e+00 8.7680172520656e+00 3.4738932871974e+00 -4.4335091180550e+00 4.2419696699897e-02
34 1 1.0487930665251e+01 5.2004118758103e+00 1.6629747306653e+00 -4.4389625289190e+00 1.8595977233902e-02
35 1 1.2283769060705e+01 3.4731680447136e+00 1.7135295719290e+00 -4.4411607355353e+00 8.1192674877950e-03
101 1 -7.0765864777719e-02 9.1795218748415e-03 3.4493014169933e+00 -4.4382706127682e+00 9.6073501446451e-03
103 1 1.6489482381733e+00 -3.2860627290533e-02 5.2192870251150e+00 -4.4269809590834e+00 2.3553919816087e-03
38 1 1.4028085635544e+01 5.2536134587639e+00 1.7255434051137e+00 -4.4300589059865e+00 8.8151412593369e-04
39 1 1.5798711473201e+01 3.4428181573766e+00 1.6867936725211e+00 -4.4504256750988e+00 1.3536816780792e-02
15 1 1.2290331400464e+01 -8.6497476665538e-02 1.6964189209626e+00 -4.4414671427246e+00 3.3890425618392e-03
221 1 -1.8475324624220e-02 3.4736261856474e+00 6.9523274392382e+00 -4.4412593785868e+00 4.5994984370823e-03
43 1 1.6994554568988e+00 6.9755431491487e+00 1.7494780219263e+00 -4.4368250157309e+00 2.4092866018458e-03
156 1 1.2270719108238e+01 8.7831031950093e+00 3.4251583151175e+00 -4.4423611577036e+00 8.8335813301430e-04
47 1 5.2303556803371e+00 6.9739751670781e+00 1.7108624986069e+00 -4.4426232428342e+00 1.3467771561071e-02
9 1 7.0159344909231e+00 -3.9699540152217e-02 -1.8107540069581e-02 -4.4390715288936e+00 6.3337630268552e-03
51 1 8.7304814875161e+00 6.9837486140402e+00 1.6288378271958e+00 -4.4399974429152e+00 1.5557606258484e-02
58 1 1.3989618646536e+01 8.7330652935561e+00 1.7155361471895e+00 -4.4429228795490e+00 3.6030503953218e-03
55 1 1.2273989450132e+01 6.9742083527082e+00 1.6631591187840e+00 -4.4431924426192e+00 1.1982031417246e-02
220 1 1.5789579796368e+01 1.7283650228085e+00 6.9867500119604e+00 -4.4538271141892e+00 3.5590629138506e-02
59 1 1.5763341557230e+01 6.9915593288497e+00 1.7153498447830e+00 -4.4412943396344e+00 8.5073867532909e-03
224 1 1.7362707008395e+00 5.2595172765340e+00 6.9837553222938e+00 -4.4422613579610e+00 1.9515812353724e-02
102 1 -5.1895873446674e-02 1.7180326855268e+00 5.1948889342975e+00 -4.4361972560243e+00 8.0351578132049e-04
240 1 1.5766380465061e+01 5.2178133460548e+00 6.9576135626012e+00 -4.4300543079222e+00 5.8487469328509e-03
104 1 1.7789454756154e+00 1.7103887888335e+00 3.4982485790783e+00 -4.4440919272980e+00 1.0078401624258e-02
237 1 1.4034877294220e+01 3.4735461067035e+00 6.9760625330092e+00 -4.4415650923469e+00 2.1333882149282e-02
106 1 3.4985118210425e+00 1.7276872340715e+00 5.2118360867060e+00 -4.4527707874387e+00 1.9930712018743e-02
217 1 1.4059188173724e+01 -2.1936749468792e-02 6.9901655276808e+00 -4.4419119553138e+00 1.4534897022442e-02
108 1 5.2371663276430e+00 1.7403759756872e+00 3.4502301111475e+00 -4.4454574654842e+00 8.4678691076103e-03
236 1 1.2207106545509e+01 5.2278476795220e+00 7.0022774748485e+00 -4.4505922663683e+00 1.4974904712461e-02
110 1 6.9609261175680e+00 1.6907155029590e+00 5.2062950683101e+00 -4.4384741264946e+00 2.5220266006683e-02
105 1 3.4873972897096e+00 -9.7637023198972e-02 3.4491810899644e+00 -4.4325330905481e+00 4.4426931774809e-02
112 1 8.7625068958423e+00 1.7006465488078e+00 3.4781790574624e+00 -4.4399483443729e+00 1.6462912370737e-02
233 1 1.0497411802366e+01 3.4343665151629e+00 6.9733147108168e+00 -4.4250616369232e+00 3.5907905207918e-03
114 1 1.0507923456479e+01 1.7444082779907e+00 5.2814146453653e+00 -4.4394749629848e+00 1.5761330194251e-02
232 1 8.7427314896875e+00 5.2362616932260e+00 6.9778382155655e+00 -4.4410192792603e+00 8.4724550361304e-03
116 1 1.2226210210225e+01 1.6837860558967e+00 3.5077777369381e+00 -4.4422449586619e+00 1.3153762121545e-02
119 1 1.5749455548428e+01 -4.5672337197538e-02 5.2176385336968e+00 -4.4416848774661e+00 2.9969707103208e-02
118 1 1.3979000901950e+01 1.7376569580225e+00 5.2087565144880e+00 -4.4405799082416e+00 2.1901703724908e-02
229 1 6.9833364875981e+00 3.4661501063246e+00 7.0100522631525e+00 -4.4451833144333e+00 2.7736963049509e-02
120 1 1.5766439288130e+01 1.7256352988154e+00 3.4775892947480e+00 -4.4388138259534e+00 7.0341148363716e-03
121 1 -2.0571727272454e-02 3.4525519895636e+00 3.4003132148044e+00 -4.4462566458627e+00 2.0056434492300e-03
122 1 -6.6924693216607e-02 5.2599204836739e+00 5.2356625230125e+00 -4.4389257976891e+00 7.5296960764748e-03
123 1 1.7385650683199e+00 3.5235114367531e+00 5.2058043333573e+00 -4.4393351499639e+00 1.3146099196337e-02
124 1 1.7086223947437e+00 5.2211247393307e+00 3.4451006275237e+00 -4.4304236849195e+00 1.3139881011685e-02
125 1 3.4994530494008e+00 3.4572489250677e+00 3.4438177101679e+00 -4.4356396481762e+00 2.2630742874153e-02
126 1 3.4669483987966e+00 5.2257096174485e+00 5.1702714210526e+00 -4.4409139152296e+00 1.2790097981680e-03
127 1 5.2370332161660e+00 3.5391761096291e+00 5.2884036591059e+00 -4.4291100951729e+00 2.8299737243341e-02
128 1 5.2547513284868e+00 5.2033544180344e+00 3.4586233728041e+00 -4.4310798980174e+00 3.7572872032361e-02
129 1 6.9908555991481e+00 3.4971900657578e+00 3.5019194771882e+00 -4.4480985826032e+00 6.8390786386685e-03
130 1 6.9640344644310e+00 5.2808049219956e+00 5.1815837219331e+00 -4.4317087360200e+00 4.8045251967945e-03
131 1 8.7320956420553e+00 3.5355410733460e+00 5.2652544870722e+00 -4.4347950363741e+00 2.0764589017210e-03
132 1 8.7506927284413e+00 5.2814168052886e+00 3.4816591919672e+00 -4.4418283779205e+00 1.3511035787197e-02
133 1 1.0498860644852e+01 3.4986914534019e+00 3.4692075363214e+00 -4.4495251754924e+00 3.3045338286625e-03
134 1 1.0513684535033e+01 5.2058384319998e+00 5.2224929529918e+00 -4.4396902078862e+00 9.1836411090429e-03
135 1 1.2277349200009e+01 3.5075232504785e+00 5.2160318048235e+00 -4.4413324146472e+00 5.4479698106923e-03
136 1 1.2256252755022e+01 5.2868143955397e+00 3.4247121104785e+00 -4.4399939690088e+00 1.5699128205117e-02
137 1 1.3974136621257e+01 3.5214176396069e+00 3.4706588420078e+00 -4.4308198320078e+00 3.1252161037073e-02
138 1 1.4074896293028e+01 5.2271707886795e+00 5.2220480747062e+00 -4.4242692283589e+00 2.8408066948389e-02
139 1 1.5766616630297e+01 3.4919651078729e+00 5.1971483831230e+00 -4.4409835553942e+00 2.1134243685593e-02
140 1 1.5749921390969e+01 5.2574211793507e+00 3.4482144353702e+00 -4.4432750774633e+00 9.2025438403585e-03
141 1 8.7233156046294e-03 6.9882595390997e+00 3.5369182993262e+00 -4.4277824237232e+00 9.6432608355220e-03
143 1 1.7099381354347e+00 7.0397203841772e+00 5.2708703910245e+00 -4.4414681974885e+00 2.1407564296237e-02
145 1 3.5351963216124e+00 7.0161393235288e+00 3.4836918045860e+00 -4.4300951663387e+00 2.4992587286450e-02
147 1 5.1883221303644e+00 6.9970824134745e+00 5.2059380713685e+00 -4.4329525956653e+00 1.0088998452904e-03
149 1 6.9402108421936e+00 6.9493733921609e+00 3.4180200183433e+00 -4.4365725887698e+00 3.6247463810408e-02
151 1 8.7634936093551e+00 7.0339546098276e+00 5.2086329327770e+00 -4.4333369343751e+00 9.8445880053264e-03
153 1 1.0432587572523e+01 7.0129266944320e+00 3.4579557489916e+00 -4.4210344431253e+00 1.9564235060167e-02
155 1 1.2210358443857e+01 7.0252966887782e+00 5.2135314788227e+00 -4.4427211551022e+00 3.6176056460886e-02
157 1 1.3966632346977e+01 7.0368619107132e+00 3.4946781243915e+00 -4.4353205693496e+00 7.0217816472347e-03
159 1 1.5766857020945e+01 6.9740788980013e+00 5.2477527095442e+00 -4.4382182190624e+00 5.2591995047738e-03
228 1 5.2369205286674e+00 5.2566808638546e+00 6.9996420199519e+00 -4.4440275825654e+00 1.1690426493537e-03
204 1 1.6693185218926e+00 1.7290845009295e+00 6.9401641064290e+00 -4.4340398983192e+00 1.8402457887552e-02
216 1 1.2281891965587e+01 1.7475731696914e+00 6.9754020197343e+00 -4.4390613152867e+00 4.9248362212006e-03
208 1 5.2601228759650e+00 1.6938727257579e+00 6.9670682666207e+00 -4.4344186149868e+00 5.9612712302414e-03
7 1 5.2200579494160e+00 -6.5065757973441e-02 1.6822442449447e+00 -4.4378862360372e+00 4.9358616784444e-03
212 1 8.7322341298099e+00 1.6502604336439e+00 7.0337816863069e+00 -4.4260834128870e+00 4.8087999787262e-02
225 1 3.5100319636799e+00 3.4784592945944e+00 6.9729597903217e+00 -4.4408163274065e+00 6.1057282671323e-03
231 1 8.7002540557224e+00 3.4866772201555e+00 8.7673077526143e+00 -4.4446231261823e+00 8.0551967910738e-03
218 1 1.4061258189945e+01 1.6824360114023e+00 8.7404261847568e+00 -4.4446306638845e+00 7.0502608315983e-03
209 1 6.9556508077318e+00 -1.2166509010547e-01 6.9856934494633e+00 -4.4275840430377e+00 8.8772539931010e-03
41 1 -1.2191646595304e-01 6.9626950508261e+00 -1.1407535770743e-02 -4.4219207096869e+00 2.1338730840145e-02
210 1 6.9780607381220e+00 1.7487371087083e+00 8.7523900240850e+00 -4.4359155133745e+00 1.2912928968507e-02
146 1 3.4638181696908e+00 8.7727475707009e+00 5.2883500627214e+00 -4.4304263494179e+00 5.5423092980957e-03
40 1 1.5782925779888e+01 5.2623487591561e+00 -7.0425846109689e-02 -4.4326711922463e+00 2.6912203468991e-02
29 1 6.9619843256538e+00 3.4786947842390e+00 -5.5978866072373e-02 -4.4363956075948e+00 1.0025831282267e-02
202 1 -3.0531913694217e-02 1.6988918242924e+00 8.7227567131645e+00 -4.4377599369611e+00 2.0167037356987e-02
206 1 3.5130068420336e+00 1.7339622004239e+00 8.6812972482048e+00 -4.4265726503741e+00 1.4536012295479e-02
20 1 1.5848560478681e+01 1.6634336543851e+00 -7.7102809207669e-02 -4.4252662206580e+00 1.6194646642978e-02
219 1 1.5833137320581e+01 -8.7302801919631e-02 8.7862351088358e+00 -4.4564852054932e+00 1.0285403381378e-02
247 1 5.1961267136562e+00 7.0114614272369e+00 8.7444601910818e+00 -4.4424894071089e+00 6.0881620701073e-03
4 1 1.7060012503095e+00 1.6839040194867e+00 -1.8240466860008e-02 -4.4473151631710e+00 2.6861362699336e-03
227 1 5.1955252193706e+00 3.4399907936410e+00 8.7602774777399e+00 -4.4392965754581e+00 8.3406416025235e-03
24 1 1.6828985281500e+00 5.2302332183207e+00 -1.1528627743555e-02 -4.4327852060096e+00 7.3593833506792e-03
16 1 1.2231615650572e+01 1.7616913001322e+00 -6.7275717657071e-02 -4.4460182335666e+00 1.2677899608347e-02
243 1 1.7422562184205e+00 7.0155916048680e+00 8.7642415753905e+00 -4.4347769665233e+00 4.4787218399619e-03
258 1 1.3936901411511e+01 8.7013738639127e+00 8.7387582483741e+00 -4.4242096007270e+00 2.8819318467275e-03
246 1 3.4555353454189e+00 8.7918061853536e+00 8.7537659063191e+00 -4.4373963026602e+00 1.4826604295606e-02
403 1 1.6883869572218e+00 -7.4208433611165e-02 1.5739448626601e+01 -4.4304383684476e+00 5.0287752250116e-02
53 1 1.0540258292692e+01 6.9726343053198e+00 -1.6018699317148e-01 -4.4326175990197e+00 1.1795778349637e-02
446 1 3.4762884697372e+00 8.7481173451252e+00 1.5807744223353e+01 -4.4299275726315e+00 3.1397743187900e-03
57 1 1.4036168566628e+01 6.9272724249505e+00 -6.6585878785403e-02 -4.4466035972274e+00 2.1008807104095e-02
356 1 1.2216797160083e+01 8.7606652900220e+00 1.0539109362657e+01 -4.4377743227123e+00 1.1420324369003e-02
452 1 8.7338889700600e+00 8.7976072286337e+00 1.4003767062282e+01 -4.4428447784186e+00 1.4890991190561e-02
32 1 8.6981250556022e+00 5.2459795305358e+00 -3.7222516040952e-02 -4.4253199471395e+00 1.3397072052721e-02
214 1 1.0451164090705e+01 1.6751242044809e+00 8.7026016329163e+00 -4.4360966452487e+00 1.7514592719694e-03
344 1 1.7304589454960e+00 8.7451658761433e+00 1.0508928800112e+01 -4.4479511942198e+00 7.3137199340883e-03
226 1 3.4258865657877e+00 5.2572613366870e+00 8.7158636949562e+00 -4.4376881965207e+00 1.5295547253233e-02
313 1 1.0507395154842e+01 -9.3198635371979e-02 1.0472695882150e+01 -4.4476039335870e+00 1.5458337833141e-02
346 1 3.4542887888623e+00 8.7418477076923e+00 1.2348769768236e+01 -4.4507718110133e+00 5.8323990896333e-03
259 1 1.5769748874287e+01 6.9674472860078e+00 8.7730788385225e+00 -4.4373894276950e+00 3.4288752689400e-03
454 1 1.0538659397769e+01 8.7589778868549e+00 1.5810166498022e+01 -4.4404740266609e+00 2.0545047083618e-02
439 1 1.5831774280522e+01 3.4817849530785e+00 1.5865261370151e+01 -4.4357211835131e+00 1.1136073195883e-03
409 1 6.9405970579922e+00 -8.7986477850168e-03 1.4047567423971e+01 -4.4426188183807e+00 2.2820352079403e-02
456 1 1.2239375756707e+01 8.7570336679432e+00 1.4030607344820e+01 -4.4361108657299e+00 3.9613583704235e-03
12 1 8.7857613983746e+00 1.6992959863488e+00 -6.0933281483521e-02 -4.4413072826701e+00 1.2572100442800e-02
433 1 1.0524519213411e+01 3.4528580607267e+00 1.4050922912084e+01 -4.4400888737722e+00 1.1208243440740e-02
413 1 1.0521780501015e+01 -3.4715379938115e-02 1.4056149345287e+01 -4.4413819951323e+00 4.6670729170627e-03
432 1 8.7505974166566e+00 5.1989402648477e+00 1.4078768295426e+01 -4.4362852382870e+00 1.4853858893132e-02
438 1 1.4035932590782e+01 5.1796878836712e+00 1.5807969784580e+01 -4.4361538819821e+00 1.7317583112137e-02
459 1 1.5777517259128e+01 7.0202030118182e+00 1.5809132211256e+01 -4.4319781314479e+00 1.4515051757675e-02
302 1 1.6444933665941e-02 1.7183265437858e+00 1.2273605068296e+01 -4.4378021328433e+00 9.6789833990215e-03
457 1 1.4046547748924e+01 6.9490492792692e+00 1.4063060375269e+01 -4.4479593793694e+00 1.0231022858726e-02
304 1 1.7951662472483e+00 1.6751608396122e+00 1.0471802757796e+01 -4.4352828791199e+00 1.5670162891735e-03
437 1 1.4036617754890e+01 3.4879417217708e+00 1.4011066873889e+01 -4.4379828760783e+00 2.5112723019082e-02
306 1 3.4797294221264e+00 1.7026500174115e+00 1.2296163327236e+01 -4.4435964900023e+00 3.5206680833544e-02
455 1 1.2276481173669e+01 7.0261662065203e+00 1.5812884472654e+01 -4.4360085481294e+00 1.7557347386375e-02
308 1 5.1747779546176e+00 1.7146817832788e+00 1.0518688318680e+01 -4.4460063950205e+00 9.9881688166030e-03
453 1 1.0462165434495e+01 7.0146279766184e+00 1.4098104740596e+01 -4.4443865422794e+00 8.5050641178291e-03
310 1 6.9297027266063e+00 1.6957161583844e+00 1.2238989065153e+01 -4.4358309459569e+00 1.7536442411650e-02
451 1 8.7422341583196e+00 7.0406979148203e+00 1.5813146034209e+01 -4.4370181531908e+00 1.5227040800841e-02
312 1 8.6717856296789e+00 1.6313960837429e+00 1.0526665033555e+01 -4.4154505625782e+00 2.9579303592527e-04
235 1 1.2281031161933e+01 3.4486064065216e+00 8.7362570233084e+00 -4.4378742007403e+00 1.8312155951499e-02
314 1 1.0469953703518e+01 1.6901186653677e+00 1.2272880858076e+01 -4.4466771040321e+00 6.2446311884860e-03
449 1 7.0068089502534e+00 6.9732146004862e+00 1.4050633110998e+01 -4.4523640165829e+00 2.5137120645987e-02
316 1 1.2221135975349e+01 1.7014120878340e+00 1.0483718104221e+01 -4.4463315739853e+00 1.4836017926505e-02
405 1 3.5100003406806e+00 -6.3509122317730e-02 1.4071761789497e+01 -4.4413632898918e+00 5.0916738101057e-03
318 1 1.3998617866130e+01 1.7785735918625e+00 1.2216441803593e+01 -4.4117537564708e+00 1.3733125337223e-02
447 1 5.1790361979822e+00 6.9942002702829e+00 1.5809503976073e+01 -4.4373363364547e+00 9.3132864701428e-03
320 1 1.5816608087298e+01 1.7107271673018e+00 1.0538625302347e+01 -4.4302229845551e+00 1.8768139665208e-02
321 1 -6.2726482870433e-02 3.4352413516399e+00 1.0483970394668e+01 -4.4409795768392e+00 1.9198820276219e-02
322 1 -7.4317676452459e-02 5.1902561779951e+00 1.2276193128544e+01 -4.4440539205879e+00 2.2491240980891e-02
323 1 1.7301237857921e+00 3.4882654586123e+00 1.2203039205032e+01 -4.4367288546397e+00 1.7029025614767e-03
324 1 1.7004898819764e+00 5.2757429875161e+00 1.0455459342786e+01 -4.4397245078410e+00 2.9403815318469e-02
325 1 3.4201226856953e+00 3.4670047940624e+00 1.0486969083722e+01 -4.4274964942762e+00 1.4679947726244e-02
326 1 3.4616702025376e+00 5.2776293739935e+00 1.2325537682777e+01 -4.4236742084037e+00 4.2527794355750e-03
327 1 5.2141264655754e+00 3.4437589047529e+00 1.2273959455433e+01 -4.4370318461924e+00 1.1500504106208e-02
328 1 5.1317638388933e+00 5.2420708285690e+00 1.0542631254479e+01 -4.4390316379952e+00 1.1429437351559e-02
329 1 6.9454666720307e+00 3.4538228425540e+00 1.0530513763415e+01 -4.4489361380165e+00 7.3815977939608e-03
330 1 6.9973901032946e+00 5.1867838206962e+00 1.2378877403292e+01 -4.4233660770012e+00 3.2309779385503e-02
331 1 8.7366298350333e+00 3.4288722786359e+00 1.2291690106488e+01 -4.4366618419729e+00 8.2228071254267e-03
332 1 8.6957218301571e+00 5.2414926679505e+00 1.0570139087621e+01 -4.4326009368321e+00 5.9763214648284e-03
333 1 1.0477319090453e+01 3.4680365968464e+00 1.0550277250010e+01 -4.4460641715521e+00 3.5093151718759e-04
334 1 1.0527107516371e+01 5.2416249412213e+00 1.2360699402763e+01 -4.4363875990926e+00 4.5170304295149e-03
335 1 1.2273375906215e+01 3.4671498485049e+00 1.2268918866041e+01 -4.4389803769391e+00 2.5140770022301e-02
336 1 1.2274255021157e+01 5.1776391455891e+00 1.0485024895143e+01 -4.4362555999729e+00 2.2086174398792e-02
337 1 1.3989594972343e+01 3.4528819522513e+00 1.0513823595906e+01 -4.4324224243936e+00 6.4440233532043e-03
338 1 1.4023205778536e+01 5.2185898781921e+00 1.2289167697609e+01 -4.4476525787109e+00 4.2999668329414e-03
339 1 1.5760362791260e+01 3.4765690670719e+00 1.2250235649513e+01 -4.4361684540238e+00 1.6696080101831e-02
340 1 1.5821676875316e+01 5.2641828935450e+00 1.0514064787929e+01 -4.4385662677239e+00 4.7103014913508e-02
341 1 -5.7754199979242e-02 7.0061319934019e+00 1.0488248404053e+01 -4.4452025162243e+00 1.4063560746168e-02
343 1 1.7328992563548e+00 6.9686867094019e+00 1.2285773618300e+01 -4.4366774957657e+00 3.7001237511492e-02
345 1 3.4797337235869e+00 7.0084147073586e+00 1.0557536456500e+01 -4.4375697232611e+00 1.1345831069728e-02
347 1 5.2418806417127e+00 6.9996417914848e+00 1.2290576951630e+01 -4.4485739300183e+00 4.2411268016263e-02
349 1 6.9527058013473e+00 6.9847298946284e+00 1.0500011924376e+01 -4.4337393802010e+00 4.9999246777100e-03
351 1 8.7243002684007e+00 7.0068618626509e+00 1.2224696161475e+01 -4.4322546343779e+00 9.6811804303180e-03
353 1 1.0533917138945e+01 6.9766329492908e+00 1.0477541039333e+01 -4.4443649465671e+00 1.1447349650255e-02
355 1 1.2228019013784e+01 6.9641882683683e+00 1.2301973890263e+01 -4.4477122503423e+00 6.5131256524604e-03
357 1 1.3989006675925e+01 6.9543544338648e+00 1.0507013301626e+01 -4.4382313828373e+00 1.1273455514621e-02
359 1 1.5723206383939e+01 6.9904437036107e+00 1.2226614439337e+01 -4.4306134873831e+00 1.7289674664480e-02
445 1 3.4701556320936e+00 7.0017230905770e+00 1.4057905204874e+01 -4.4366214543622e+00 9.0367579949944e-03
402 1 -6.5434106117984e-02 1.7123857236139e+00 1.5861046606179e+01 -4.4294314427765e+00 3.8264642760663e-02
435 1 1.2295562237262e+01 3.4767149796923e+00 1.5792892808315e+01 -4.4314718699323e+00 1.8492788837695e-02
404 1 1.6636755843844e+00 1.6530941552753e+00 1.4038699481366e+01 -4.4178767594566e+00 1.3559897709260e-02
443 1 1.6935081076273e+00 7.0286545573655e+00 1.5771696560398e+01 -4.4362148507861e+00 7.0096595824650e-03
406 1 3.3913995161465e+00 1.7187177796439e+00 1.5804000916313e+01 -4.4409396100470e+00 8.1556308281802e-03
441 1 -7.6712218368591e-02 7.0230952674702e+00 1.3906830541209e+01 -4.4271435572536e+00 1.3254310424886e-02
408 1 5.1808985427502e+00 1.7547172625095e+00 1.4024275913919e+01 -4.4293369778029e+00 1.0539127341043e-02
1 1 -3.7686929577713e-02 -7.0778895718303e-02 -6.7442611095601e-03 -4.4428866077650e+00 1.0758247417783e-02
410 1 7.0118231452587e+00 1.7190679331726e+00 1.5823353416158e+01 -4.4411640581549e+00 5.2375079486500e-03
436 1 1.2294170071046e+01 5.2074237598627e+00 1.4087429040303e+01 -4.4384017803864e+00 5.5667195141365e-03
412 1 8.6966391273226e+00 1.7534245129783e+00 1.4040159426930e+01 -4.4407256127559e+00 1.5422718698096e-02
309 1 6.9518586425233e+00 -1.0269706940780e-02 1.0457947312642e+01 -4.4278898136216e+00 4.3708144260310e-03
414 1 1.0495130754047e+01 1.7210119233685e+00 1.5771638614358e+01 -4.4377363363392e+00 3.6122244366164e-02
440 1 1.5787739326377e+01 5.1710535128451e+00 1.4048599723208e+01 -4.4388815588933e+00 2.2614968889824e-03
416 1 1.2278679454160e+01 1.7450512601356e+00 1.4022317916628e+01 -4.4406984197409e+00 3.2835962771475e-03
431 1 8.7687833061127e+00 3.4698734350098e+00 1.5848029766641e+01 -4.4403632417288e+00 8.0316471035000e-03
418 1 1.4041252277659e+01 1.7400994579019e+00 1.5822469279010e+01 -4.4538069253890e+00 1.9930460068308e-02
434 1 1.0472618494920e+01 5.2197357266520e+00 1.5815251475917e+01 -4.4457760757750e+00 6.2785119240666e-03
420 1 1.5813027722082e+01 1.7452661352847e+00 1.4037574503374e+01 -4.4602750315444e+00 1.4435760147254e-02
421 1 -7.5935743134805e-02 3.4922116452829e+00 1.4054365096959e+01 -4.4333932482330e+00 1.8711610436829e-03
422 1 -3.3310334515484e-02 5.2951938807048e+00 1.5805237898751e+01 -4.4458285349881e+00 1.2500458274409e-02
423 1 1.6684420676075e+00 3.4367937947575e+00 1.5811809619084e+01 -4.4459047937042e+00 1.8845826060138e-02
424 1 1.7423417366989e+00 5.2565581689006e+00 1.4048952482103e+01 -4.4263131809704e+00 1.8359983333500e-02
425 1 3.4530936609091e+00 3.5064670153880e+00 1.4026431380878e+01 -4.4403412211664e+00 3.1838459232853e-03
426 1 3.4951969535257e+00 5.2186642467806e+00 1.5815380171852e+01 -4.4337789425670e+00 8.8671954459289e-03
427 1 5.2046597138651e+00 3.4354960601331e+00 1.5824587102835e+01 -4.4449067958294e+00 1.6047460351204e-02
428 1 5.2253030899842e+00 5.2156524326007e+00 1.4101749509860e+01 -4.4458498893804e+00 3.5571516368223e-03
429 1 6.9284348535535e+00 3.4423095948168e+00 1.4038023788528e+01 -4.4314830578185e+00 5.4067145269760e-03
430 1 7.0321660327400e+00 5.2505231793475e+00 1.5826102920760e+01 -4.4479409564579e+00 1.4150996955953e-02
49 1 6.9694544957164e+00 7.0360370371452e+00 -8.5014489867802e-02 -4.4300865676769e+00 1.3246043036887e-02
301 1 -1.5088892817415e-02 -1.0972968289016e-02 1.0539041719843e+01 -4.4319492430617e+00 5.4180381762427e-04
458 1 1.4009328939801e+01 8.7131689938966e+00 1.5792836312456e+01 -4.4347024015284e+00 7.8123932490349e-03
358 1 1.4029037886517e+01 8.7455374550036e+00 1.2237292675852e+01 -4.4389542362510e+00 8.8562324418562e-03
407 1 5.2254674274008e+00 -5.8130977778913e-02 1.5781713522294e+01 -4.4375471779180e+00 1.3647003881589e-02
311 1 8.7289515513862e+00 -5.9252344190057e-02 1.2223604462307e+01 -4.4304904702217e+00 7.4361788958220e-03
242 1 -4.4032712157161e-02 8.7393730741358e+00 8.7684944171255e+00 -4.4458007078657e+00 1.5429334540573e-02
307 1 5.2658512092153e+00 -6.2329766464412e-02 1.2260031295562e+01 -4.4429632534189e+00 4.6887685622921e-03
415 1 1.2237544847094e+01 -1.0545188458024e-02 1.5778154130623e+01 -4.4413020053013e+00 8.9483791906592e-03
317 1 1.4019023154046e+01 -2.8444065313616e-02 1.0501945162714e+01 -4.4355692190831e+00 1.0148016087017e-02
319 1 1.5709903287907e+01 -9.0708644635685e-03 1.2239717882781e+01 -4.4382463361849e+00 3.1626351758958e-02
33 1 1.0531547117475e+01 3.4830970917137e+00 -2.3174775318651e-02 -4.4299059327624e+00 3.6668658890658e-02
28 1 5.2258695143483e+00 5.2390005270984e+00 -9.2453604477974e-02 -4.4518501541670e+00 2.2984303687339e-03
234 1 1.0467240852204e+01 5.2018872720775e+00 8.7083590430253e+00 -4.4306321845046e+00 2.7272390990956e-03
207 1 5.2409520877848e+00 -2.9766269538716e-02 8.7310191127798e+00 -4.4450439964567e+00 2.9945882128891e-02
251 1 8.7534819992522e+00 6.9738459337728e+00 8.7642902521057e+00 -4.4437408068404e+00 2.6146567012313e-03
238 1 1.4045931861135e+01 5.2308644974368e+00 8.7327727198821e+00 -4.4444986272468e+00 6.4986925029120e-03
222 1 -2.0447577634130e-02 5.2435449223770e+00 8.7595953788250e+00 -4.4464235720121e+00 6.2093908054132e-03
211 1 8.7198151896168e+00 -4.5947787759052e-02 8.7359157001700e+00 -4.4316488218184e+00 3.0313183787433e-02
223 1 1.7205053340906e+00 3.4796042573545e+00 8.7260096499074e+00 -4.4484608486239e+00 2.0606120442691e-02
255 1 1.2216645358651e+01 7.0441875876122e+00 8.7207345741709e+00 -4.4252139755842e+00 2.3418343819019e-03
36 1 1.2320444766682e+01 5.1425031014147e+00 -7.1538168456229e-02 -4.4385120686750e+00 1.5521975513662e-02
45 1 3.4074889552382e+00 6.9671869262211e+00 -8.0637718545617e-02 -4.4455022822044e+00 2.5524662771159e-02
93 1 1.0522383044187e+01 1.3991798971911e+01 4.2105233132000e-03 -4.4272089952070e+00 4.8994966147737e-03
300 1 1.5774055296981e+01 1.5806623420925e+01 6.9373555626249e+00 -4.4383482832631e+00 1.9141902795686e-02
297 1 1.4087977723594e+01 1.4043738414588e+01 6.9770141974637e+00 -4.4278664076320e+00 5.1568954343691e-03
296 1 1.2258133000066e+01 1.5723012837827e+01 7.0034848084017e+00 -4.4380879030386e+00 4.3230555874581e-03
293 1 1.0485517872305e+01 1.3974261150690e+01 6.9724096029089e+00 -4.4438074167665e+00 4.8304843417287e-03
117 1 1.4015762856377e+01 -3.7983128844076e-02 3.4433578764950e+00 -4.4398833380856e+00 1.4005527388501e-02
213 1 1.0562197951474e+01 -1.1157598880287e-01 7.0256775918482e+00 -4.4360206113404e+00 1.5381198864020e-02
292 1 8.7450373837609e+00 1.5776025266117e+01 6.9890486379412e+00 -4.4435304774227e+00 5.3779434091957e-03
254 1 1.0431367496710e+01 8.8083017607837e+00 8.7589418634166e+00 -4.4431144479516e+00 1.5488140145110e-02
46 1 3.4817566481148e+00 8.7087015950831e+00 1.7115016831958e+00 -4.4324657406056e+00 9.0235704414712e-04
42 1 -1.3184263793149e-01 8.7238043274209e+00 1.7942647115924e+00 -4.4277104688891e+00 4.9401146346759e-03
62 1 -1.1411211302160e-01 1.2224833327523e+01 1.7069771640579e+00 -4.4424857747895e+00 2.5817418787451e-02
63 1 1.6722149927975e+00 1.0521174587445e+01 1.6807185044649e+00 -4.4299761773854e+00 1.2516859572673e-02
160 1 1.5769303061508e+01 8.7617644211671e+00 3.5081676825439e+00 -4.4370555331258e+00 4.6175532399776e-02
111 1 8.7488744272478e+00 -5.3904990830951e-02 5.2082443543210e+00 -4.4505342098995e+00 8.0020917239665e-03
66 1 3.3968942204765e+00 1.2322579059260e+01 1.6574258583348e+00 -4.4332902675016e+00 2.0392728969652e-02
67 1 5.2362075776765e+00 1.0527952884487e+01 1.6700457598638e+00 -4.4473257852725e+00 1.2727708746065e-03
54 1 1.0515597708529e+01 8.7321431786292e+00 1.6003617641205e+00 -4.4403242802353e+00 1.6448283858264e-03
56 1 1.2286214325397e+01 8.7526629847994e+00 -7.2141960688514e-02 -4.4367985454657e+00 7.9353479460718e-03
70 1 6.9554168550991e+00 1.2251326707319e+01 1.7175929547279e+00 -4.4418539349929e+00 9.1601149842399e-03
71 1 8.7455044626274e+00 1.0503888981184e+01 1.6724104931304e+00 -4.4460042047751e+00 9.9077480960484e-03
72 1 8.7427478019631e+00 1.2259759668421e+01 -1.3104219694880e-01 -4.4373914870068e+00 1.6438205569515e-02
109 1 6.9669524399908e+00 -2.7020519310476e-02 3.4214830086231e+00 -4.4483669236711e+00 2.0644161247542e-02
74 1 1.0559516429547e+01 1.2257748511389e+01 1.6415230720890e+00 -4.4299635212201e+00 7.0960162544213e-03
75 1 1.2319991097156e+01 1.0543199044034e+01 1.6736884221595e+00 -4.4420648183900e+00 5.6831034249291e-03