LAMMPS (26 Jan 2017-ICMS)
OMP_NUM_THREADS environment is not set. Defaulting to 1 thread. (../comm.cpp:90)
  using 1 OpenMP thread(s) per MPI task
Total wall time: 0:00:00
